                         Program Version 5.0  -  CURRENT   -
|  1> ! DLPNO-CCSD(T1) aug-cc-pVTZ DEFGRID3 RIJCOSX def2/J aug-cc-pVQZ/C verytightscf TightPNO LED
|  2>
|  3> %pal nprocs 16 end
|  4> %maxcore 4000
|  5> %scf maxiter 999 end
|  6> %basis auxj "autoaux" auxc "autoaux" autoauxlmax true end
|  7> %mdci TCutPNO 1e-6 printlevel 3 end
|  8>
|  9> *xyz 0 1
| 10> O(1)    -1.753042425     0.416462959     0.356105280
| 11> H(1)    -1.120933301    -0.183098298     0.812596940
| 12> H(1)    -2.593310567    -0.048459739     0.359102074
| 13> O(2)     2.482542995    -1.248988714     0.449488905
| 14> H(2)     2.616828786    -1.798226083    -0.326968465
| 15> H(2)     2.828107886    -0.362220961     0.204648083
| 16> O(3)     0.012631031    -1.241255898     1.573836894
| 17> H(3)     0.908618001    -1.252949881     1.168524322
| 18> H(3)     0.168950409    -1.135399007     2.515952529
| 19> O(4)     3.364853284     1.252522284    -0.119963272
| 20> H(4)     2.731853532     1.891821037    -0.517486897
| 21> H(4)     4.212012919     1.443946099    -0.529713339
| 22> O(5)    -0.845377446     1.902266646    -1.724481185
| 23> H(5)    -1.198971324     1.335278306    -1.003913817
| 24> H(5)    -0.953209570     1.388839038    -2.529056860
| 25> O(6)     1.597560181     2.978636709    -1.236245995
| 26> H(6)     1.417961949     3.808511891    -0.786488687
| 27> H(6)     0.711446199     2.593888593    -1.420550970
| 28> *
| 29>
| 30>                          ****END OF INPUT****

CARTESIAN COORDINATES (ANGSTROEM)
---------------------------------
  O     -1.753042    0.416463    0.356105
  H     -1.120933   -0.183098    0.812597
  H     -2.593311   -0.048460    0.359102
  O      2.482543   -1.248989    0.449489
  H      2.616829   -1.798226   -0.326968
  H      2.828108   -0.362221    0.204648
  O      0.012631   -1.241256    1.573837
  H      0.908618   -1.252950    1.168524
  H      0.168950   -1.135399    2.515953
  O      3.364853    1.252522   -0.119963
  H      2.731854    1.891821   -0.517487
  H      4.212013    1.443946   -0.529713
  O     -0.845377    1.902267   -1.724481
  H     -1.198971    1.335278   -1.003914
  H     -0.953210    1.388839   -2.529057
  O      1.597560    2.978637   -1.236246
  H      1.417962    3.808512   -0.786489
  H      0.711446    2.593889   -1.420551

 Total Charge           Charge          ....    0
 Multiplicity           Mult            ....    1
 Number of Electrons    NEL             ....   60
 Basis Dimension        Dim             ....  552

ORBITAL ENERGIES
----------------

  NO   OCC          E(Eh)            E(eV)
   0   2.0000     -20.554246      -559.3095
   1   2.0000     -20.554140      -559.3066
   2   2.0000     -20.553510      -559.2894
   3   2.0000     -20.553340      -559.2848
   4   2.0000     -20.552997      -559.2755
   5   2.0000     -20.552884      -559.2724
   6   2.0000      -1.357256       -36.9328
   7   2.0000      -1.349797       -36.7298
   8   2.0000      -1.349277       -36.7157
   9   2.0000      -1.333916       -36.2977
  10   2.0000      -1.332928       -36.2708
  11   2.0000      -1.324936       -36.0533
  12   2.0000      -0.717286       -19.5183
  13   2.0000      -0.716990       -19.5103
  14   2.0000      -0.715580       -19.4719
  15   2.0000      -0.715332       -19.4652
  16   2.0000      -0.712960       -19.4006
  17   2.0000      -0.712619       -19.3913
  18   2.0000      -0.622783       -16.9468
  19   2.0000      -0.605112       -16.4659
  20   2.0000      -0.601115       -16.3572
  21   2.0000      -0.561965       -15.2919
  22   2.0000      -0.557728       -15.1766
  23   2.0000      -0.539809       -14.6889
  24   2.0000      -0.505035       -13.7427
  25   2.0000      -0.504097       -13.7172
  26   2.0000      -0.500898       -13.6301
  27   2.0000      -0.499687       -13.5972
  28   2.0000      -0.498519       -13.5654
  29   2.0000      -0.495959       -13.4957
  30   0.0000       0.025299         0.6884
  31   0.0000       0.036462         0.9922
  32   0.0000       0.041919         1.1407
  33   0.0000       0.042077         1.1450
  34   0.0000       0.052484         1.4282

MULLIKEN ATOMIC CHARGES
-----------------------
   0 O :   -0.500261
   1 H :    0.315932
   2 H :    0.176035
   3 O :   -0.498979
   4 H :    0.183833
   5 H :    0.305562
   6 O :   -0.478487
   7 H :    0.315380
   8 H :    0.176737
   9 O :   -0.487519
  10 H :    0.316878
  11 H :    0.169681
  12 O :   -0.487254
  13 H :    0.297943
  14 H :    0.185727
  15 O :   -0.481810
  16 H :    0.182685
  17 H :    0.307916
Sum of atomic charges:   -0.0000000

LOEWDIN ATOMIC CHARGES
----------------------
   0 O :    1.120597
   1 H :   -0.672546
   2 H :   -0.448880
   3 O :    1.119586
   4 H :   -0.448815
   5 H :   -0.672909
   6 O :    1.118845
   7 H :   -0.670126
   8 H :   -0.446041
   9 O :    1.120900
  10 H :   -0.672323
  11 H :   -0.448960
  12 O :    1.119745
  13 H :   -0.672941
  14 H :   -0.448787
  15 O :    1.118766
  16 H :   -0.446074
  17 H :   -0.670036

  Mayer bond orders larger than 0.100000
B(  0-O ,  1-H ) :   0.8767 B(  0-O ,  2-H ) :   1.0506 B(  3-O ,  4-H ) :   1.0384
B(  3-O ,  5-H ) :   0.8823 B(  6-O ,  7-H ) :   0.8773 B(  6-O ,  8-H ) :   1.0503
B(  9-O , 10-H ) :   0.8717 B(  9-O , 11-H ) :   1.0618 B( 12-O , 13-H ) :   0.9006
B( 12-O , 14-H ) :   1.0393 B( 15-O , 16-H ) :   1.0440 B( 15-O , 17-H ) :   0.8871

E(0)                                       ...   -456.407766373
E(0)                                       ...   -456.407766373
E(CORR)(strong-pairs)                      ...     -1.655416137
E(CORR)(weak-pairs)                        ...     -0.006008511
E(CORR)(corrected)                         ...     -1.661424648
E(TOT)                                     ...   -458.069191021
E(CCSD(T))                                 ...   -458.124512150
FINAL SINGLE POINT ENERGY      -458.124512149640

DIPOLE MOMENT
-------------
                                X             Y             Z
Electronic contribution:     -0.00157       0.08872       0.13102
Nuclear contribution   :      0.00917      -0.36404      -0.54173
                        -----------------------------------------
Total Dipole Moment    :      0.00760      -0.27532      -0.41071
                        -----------------------------------------
Magnitude (a.u.)       :      0.49451
Magnitude (Debye)      :      1.25694

Rotational constants in cm-1:     0.043239     0.041901     0.022852
Rotational constants in MHz :  1296.287227  1256.174798   685.073743

                             ****ORCA TERMINATED NORMALLY****
TOTAL RUN TIME: 0 days 0 hours 7 minutes 1 seconds 687 msec
