                         Program Version 6.0  -  CURRENT   -
|  1> ! DLPNO-CCSD RIJCOSX def2-TZVP(-f) def2/J def2-tzvp/C verytightscf LoosePNO
|  2>
|  3> %pal nprocs 16 end
|  4> %maxcore 4000
|  5> %scf maxiter 999 end
|  6>
|  7> *xyz 0 1
|  8> C(6)       9.674114    5.786946    5.671998
|  9> C(6)      10.838988    5.937057    6.307297
| 10> H(6)      11.625280    5.850045    5.781307
| 11> C(6)      11.033050    6.226963    7.756160
| 12> H(6)      11.479258    5.563590    8.269299
| 13> C(6)      10.636408    7.342178    8.413564
| 14> C(6)       9.901915    8.443438    7.728235
| 15> H(6)      10.307283    9.302318    7.705738
| 16> C(6)       8.710800    8.298727    7.144286
| 17> H(6)       8.312540    9.079626    6.778112
| 18> C(6)       7.954860    7.037744    7.014673
| 19> H(6)       7.088930    7.009127    7.404357
| 20> C(6)       8.381665    5.935438    6.398299
| 21> H(6)       7.810630    5.176666    6.424481
| 22> C(6)       9.569828    5.415060    4.180727
| 23> C(6)       8.921158    6.591160    3.443570
| 24> H(6)       8.026663    6.767888    3.829289
| 25> H(6)       9.474162    7.402760    3.568431
| 26> C(6)       8.780993    6.297203    1.950331
| 27> H(6)       8.355963    7.079521    1.494983
| 28> C(6)      10.132685    6.027540    1.331483
| 29> H(6)      10.706610    6.828986    1.423104
| 30> H(6)      10.024448    5.834265    0.366596
| 31> C(6)      10.797041    4.838699    2.021845
| 32> H(6)      11.698331    4.675841    1.620378
| 33> C(6)      10.946354    5.154816    3.531282
| 34> H(6)      11.386255    4.393057    3.985505
| 35> H(6)      11.520769    5.953004    3.645513
| 36> C(6)       8.698790    4.142084    3.972879
| 37> H(6)       9.128405    3.369635    4.418806
| 38> H(6)       7.808416    4.278582    4.383598
| 39> C(6)       8.534346    3.845159    2.471962
| 40> H(6)       7.958545    3.036442    2.351826
| 41> C(6)       7.887058    5.045760    1.768524
| 42> H(6)       6.990908    5.215863    2.153342
| 43> H(6)       7.777803    4.849724    0.804312
| 44> C(6)       9.919573    3.588366    1.851089
| 45> H(6)      10.348131    2.814931    2.296313
| 46> H(6)       9.821482    3.376732    0.888958
| 47> C(6)      10.968759    7.577204    9.886415
| 48> C(6)       9.657143    7.855408   10.626355
| 49> H(6)       9.051450    7.079069   10.523739
| 50> H(6)       9.214231    8.644048   10.223876
| 51> C(6)       9.902783    8.116897   12.124403
| 52> H(6)       9.033313    8.300237   12.583126
| 53> C(6)      10.580438    6.892562   12.762937
| 54> H(6)      10.742016    7.062426   13.724759
| 55> H(6)       9.989391    6.102412   12.682734
| 56> C(6)      11.912520    6.619138   12.052721
| 57> H(6)      12.345972    5.814570   12.458659
| 58> C(6)      11.646126    6.357366   10.562519
| 59> H(6)      11.061901    5.563719   10.468170
| 60> H(6)      12.502460    6.162620   10.105455
| 61> C(6)      11.906747    8.784953   10.079583
| 62> H(6)      11.500833    9.587722    9.666193
| 63> H(6)      12.769143    8.609083    9.626344
| 64> C(6)      12.157990    9.049500   11.579544
| 65> H(6)      12.755092    9.845637   11.677689
| 66> C(6)      10.838538    9.324381   12.281970
| 67> H(6)      10.413844   10.128872   11.891414
| 68> H(6)      11.001772    9.496877   13.243060
| 69> C(6)      12.835122    7.829597   12.215462
| 70> H(6)      13.703032    7.655275   11.772262
| 71> H(6)      13.004190    7.999183   13.176074
| 72> *
| 73>
| 74>                          ****END OF INPUT****

CARTESIAN COORDINATES (ANGSTROEM)
---------------------------------
  C      9.674114    5.786946    5.671998
  C     10.838988    5.937057    6.307297
  H     11.625280    5.850045    5.781307
  C     11.033050    6.226963    7.756160
  H     11.479258    5.563590    8.269299
  C     10.636408    7.342178    8.413564
  C      9.901915    8.443438    7.728235
  H     10.307283    9.302318    7.705738
  C      8.710800    8.298727    7.144286
  H      8.312540    9.079626    6.778112
  C      7.954860    7.037744    7.014673
  H      7.088930    7.009127    7.404357
  C      8.381665    5.935438    6.398299
  H      7.810630    5.176666    6.424481
  C      9.569828    5.415060    4.180727
  C      8.921158    6.591160    3.443570
  H      8.026663    6.767888    3.829289
  H      9.474162    7.402760    3.568431
  C      8.780993    6.297203    1.950331
  H      8.355963    7.079521    1.494983
  C     10.132685    6.027540    1.331483
  H     10.706610    6.828986    1.423104
  H     10.024448    5.834265    0.366596
  C     10.797041    4.838699    2.021845
  H     11.698331    4.675841    1.620378
  C     10.946354    5.154816    3.531282
  H     11.386255    4.393057    3.985505
  H     11.520769    5.953004    3.645513
  C      8.698790    4.142084    3.972879
  H      9.128405    3.369635    4.418806
  H      7.808416    4.278582    4.383598
  C      8.534346    3.845159    2.471962
  H      7.958545    3.036442    2.351826
  C      7.887058    5.045760    1.768524
  H      6.990908    5.215863    2.153342
  H      7.777803    4.849724    0.804312
  C      9.919573    3.588366    1.851089
  H     10.348131    2.814931    2.296313
  H      9.821482    3.376732    0.888958
  C     10.968759    7.577204    9.886415
  C      9.657143    7.855408   10.626355
  H      9.051450    7.079069   10.523739
  H      9.214231    8.644048   10.223876
  C      9.902783    8.116897   12.124403
  H      9.033313    8.300237   12.583126
  C     10.580438    6.892562   12.762937
  H     10.742016    7.062426   13.724759
  H      9.989391    6.102412   12.682734
  C     11.912520    6.619138   12.052721
  H     12.345972    5.814570   12.458659
  C     11.646126    6.357366   10.562519
  H     11.061901    5.563719   10.468170
  H     12.502460    6.162620   10.105455
  C     11.906747    8.784953   10.079583
  H     11.500833    9.587722    9.666193
  H     12.769143    8.609083    9.626344
  C     12.157990    9.049500   11.579544
  H     12.755092    9.845637   11.677689
  C     10.838538    9.324381   12.281970
  H     10.413844   10.128872   11.891414
  H     11.001772    9.496877   13.243060
  C     12.835122    7.829597   12.215462
  H     13.703032    7.655275   11.772262
  H     13.004190    7.999183   13.176074

 Total Charge           Charge          ....    0
 Multiplicity           Mult            ....    1
 Number of Electrons    NEL             ....  204
 Basis Dimension        Dim             ....  888

ORBITAL ENERGIES
----------------

  NO   OCC          E(Eh)            E(eV)
   0   2.0000     -11.222397      -305.3769
   1   2.0000     -11.219928      -305.3098
   2   2.0000     -11.219007      -305.2847
   3   2.0000     -11.216634      -305.2201
   4   2.0000     -11.206165      -304.9353
   5   2.0000     -11.205212      -304.9093
   6   2.0000     -11.204291      -304.8843
   7   2.0000     -11.203362      -304.8590
   8   2.0000     -11.197566      -304.7013
   9   2.0000     -11.194737      -304.6243
  10   2.0000     -11.194588      -304.6202
  11   2.0000     -11.193619      -304.5939
  12   2.0000     -11.192557      -304.5649
  13   2.0000     -11.192280      -304.5574
  14   2.0000     -11.191375      -304.5328
  15   2.0000     -11.189560      -304.4834
  16   2.0000     -11.178619      -304.1857
  17   2.0000     -11.177450      -304.1539
  18   2.0000     -11.175466      -304.0999
  19   2.0000     -11.174650      -304.0777
  20   2.0000     -11.174282      -304.0677
  21   2.0000     -11.173868      -304.0564
  22   2.0000     -11.173381      -304.0431
  23   2.0000     -11.172436      -304.0174
  24   2.0000     -11.171934      -304.0038
  25   2.0000     -11.170862      -303.9746
  26   2.0000     -11.170607      -303.9677
  27   2.0000     -11.170472      -303.9640
  28   2.0000      -1.169445       -31.8222
  29   2.0000      -1.167028       -31.7564
  30   2.0000      -1.126723       -30.6597
  31   2.0000      -1.085959       -29.5504
  32   2.0000      -1.067061       -29.0362
  33   2.0000      -1.046675       -28.4815
  34   2.0000      -1.045220       -28.4419
  35   2.0000      -1.043113       -28.3845
  36   2.0000      -1.042673       -28.3726
  37   2.0000      -1.027877       -27.9699
  38   2.0000      -1.020605       -27.7721
  39   2.0000      -0.951769       -25.8989
  40   2.0000      -0.932682       -25.3796
  41   2.0000      -0.931052       -25.3352
  42   2.0000      -0.930566       -25.3220
  43   2.0000      -0.927634       -25.2422
  44   2.0000      -0.893150       -24.3039
  45   2.0000      -0.825108       -22.4523
  46   2.0000      -0.821766       -22.3614
  47   2.0000      -0.814981       -22.1768
  48   2.0000      -0.814221       -22.1561
  49   2.0000      -0.811397       -22.0792
  50   2.0000      -0.800253       -21.7760
  51   2.0000      -0.776338       -21.1252
  52   2.0000      -0.749794       -20.4029
  53   2.0000      -0.722799       -19.6684
  54   2.0000      -0.722107       -19.6495
  55   2.0000      -0.688209       -18.7271
  56   2.0000      -0.683262       -18.5925
  57   2.0000      -0.653639       -17.7864
  58   2.0000      -0.646134       -17.5822
  59   2.0000      -0.638354       -17.3705
  60   2.0000      -0.637712       -17.3530
  61   2.0000      -0.637192       -17.3389
  62   2.0000      -0.636622       -17.3234
  63   2.0000      -0.635931       -17.3046
  64   2.0000      -0.634293       -17.2600
  65   2.0000      -0.623437       -16.9646
  66   2.0000      -0.612055       -16.6549
  67   2.0000      -0.597133       -16.2488
  68   2.0000      -0.581711       -15.8292
  69   2.0000      -0.578121       -15.7315
  70   2.0000      -0.575932       -15.6719
  71   2.0000      -0.573184       -15.5971
  72   2.0000      -0.572067       -15.5667
  73   2.0000      -0.564559       -15.3624
  74   2.0000      -0.557728       -15.1766
  75   2.0000      -0.551126       -14.9969
  76   2.0000      -0.549034       -14.9400
  77   2.0000      -0.547990       -14.9116
  78   2.0000      -0.547694       -14.9035
  79   2.0000      -0.522601       -14.2207
  80   2.0000      -0.516576       -14.0568
  81   2.0000      -0.483422       -13.1546
  82   2.0000      -0.475122       -12.9287
  83   2.0000      -0.472889       -12.8680
  84   2.0000      -0.464564       -12.6414
  85   2.0000      -0.463751       -12.6193
  86   2.0000      -0.459908       -12.5147
  87   2.0000      -0.459357       -12.4997
  88   2.0000      -0.458305       -12.4711
  89   2.0000      -0.457151       -12.4397
  90   2.0000      -0.452398       -12.3104
  91   2.0000      -0.451917       -12.2973
  92   2.0000      -0.417182       -11.3521
  93   2.0000      -0.407103       -11.0778
  94   2.0000      -0.406065       -11.0496
  95   2.0000      -0.402302       -10.9472
  96   2.0000      -0.399603       -10.8738
  97   2.0000      -0.399413       -10.8686
  98   2.0000      -0.391697       -10.6586
  99   2.0000      -0.343375        -9.3437
 100   2.0000      -0.339817        -9.2469
 101   2.0000      -0.301426        -8.2022
 102   0.0000       0.124762         3.3949
 103   0.0000       0.131598         3.5810
 104   0.0000       0.135164         3.6780
 105   0.0000       0.156755         4.2655
 106   0.0000       0.160279         4.3614

E(0)                                       ...  -1081.281138980
E(0)                                       ...  -1081.281138980
E(CORR)(strong-pairs)                      ...     -4.089647870
E(CORR)(weak-pairs)                        ...     -0.357490717
E(CORR)(corrected)                         ...     -4.447138587
E(TOT)                                     ...  -1085.728277567

MULLIKEN ATOMIC CHARGES
-----------------------
   0 C :    0.250411
   1 C :   -0.114270
   2 H :    0.087425
   3 C :   -0.104122
   4 H :    0.087638
   5 C :    0.281873
   6 C :   -0.320967
   7 H :    0.072454
   8 C :   -0.058601
   9 H :    0.075427
  10 C :   -0.081663
  11 H :    0.075141
  12 C :   -0.315355
  13 H :    0.072239
  14 C :    0.273778
  15 C :   -0.406012
  16 H :    0.114703
  17 H :    0.107697
  18 C :    0.200477
  19 H :    0.086156
  20 C :   -0.378798
  21 H :    0.092226
  22 H :    0.103585
  23 C :    0.222103
  24 H :    0.083490
  25 C :   -0.411658
  26 H :    0.103309
  27 H :    0.097444
  28 C :   -0.411352
  29 H :    0.106500
  30 H :    0.100687
  31 C :    0.183043
  32 H :    0.088709
  33 C :   -0.368154
  34 H :    0.091227
  35 H :    0.105106
  36 C :   -0.373662
  37 H :    0.093069
  38 H :    0.101891
  39 C :    0.245726
  40 C :   -0.413028
  41 H :    0.103984
  42 H :    0.113088
  43 C :    0.210829
  44 H :    0.085577
  45 C :   -0.375872
  46 H :    0.101918
  47 H :    0.093221
  48 C :    0.224646
  49 H :    0.083107
  50 C :   -0.408917
  51 H :    0.103405
  52 H :    0.096324
  53 C :   -0.394232
  54 H :    0.099913
  55 H :    0.102888
  56 C :    0.181012
  57 H :    0.087034
  58 C :   -0.375853
  59 H :    0.089920
  60 H :    0.104472
  61 C :   -0.366795
  62 H :    0.091703
  63 H :    0.102736
Sum of atomic charges:   -0.0000000

LOEWDIN ATOMIC CHARGES
----------------------
   0 C :   -0.063571
   1 C :   -0.083362
   2 H :    0.095455
   3 C :   -0.076296
   4 H :    0.094297
   5 C :   -0.060329
   6 C :   -0.069361
   7 H :    0.093096
   8 C :   -0.094682
   9 H :    0.092512
  10 C :   -0.097505
  11 H :    0.092536
  12 C :   -0.068004
  13 H :    0.093931
  14 C :   -0.149563
  15 C :   -0.131824
  16 H :    0.105646
  17 H :    0.105347
  18 C :   -0.166329
  19 H :    0.105658
  20 C :   -0.161438
  21 H :    0.100291
  22 H :    0.100263
  23 C :   -0.158795
  24 H :    0.104240
  25 C :   -0.132549
  26 H :    0.101674
  27 H :    0.101619
  28 C :   -0.127614
  29 H :    0.102258
  30 H :    0.099880
  31 C :   -0.162639
  32 H :    0.104244
  33 C :   -0.149395
  34 H :    0.097439
  35 H :    0.097570
  36 C :   -0.153083
  37 H :    0.097814
  38 H :    0.097832
  39 C :   -0.158451
  40 C :   -0.130315
  41 H :    0.104753
  42 H :    0.104843
  43 C :   -0.158674
  44 H :    0.103721
  45 C :   -0.153322
  46 H :    0.097916
  47 H :    0.098031
  48 C :   -0.164112
  49 H :    0.105003
  50 C :   -0.132652
  51 H :    0.103106
  52 H :    0.101486
  53 C :   -0.126395
  54 H :    0.100228
  55 H :    0.102868
  56 C :   -0.164690
  57 H :    0.105396
  58 C :   -0.157269
  59 H :    0.098848
  60 H :    0.099268
  61 C :   -0.153730
  62 H :    0.098281
  63 H :    0.098602

  Mayer bond orders larger than 0.100000
B(  0-C ,  1-C ) :   1.7396 B(  0-C , 12-C ) :   0.9477 B(  0-C , 14-C ) :   0.8368
B(  1-C ,  2-H ) :   0.9517 B(  1-C ,  3-C ) :   0.8557 B(  3-C ,  4-H ) :   0.9571
B(  3-C ,  5-C ) :   1.7154 B(  5-C ,  6-C ) :   0.9325 B(  5-C , 39-C ) :   0.8438
B(  6-C ,  7-H ) :   0.9635 B(  6-C ,  8-C ) :   1.7826 B(  8-C ,  9-H ) :   0.9499
B(  8-C , 10-C ) :   0.8996 B( 10-C , 11-H ) :   0.9511 B( 10-C , 12-C ) :   1.7822
B( 12-C , 13-H ) :   0.9634 B( 14-C , 15-C ) :   0.8511 B( 14-C , 25-C ) :   0.9084
B( 14-C , 28-C ) :   0.8726 B( 15-C , 16-H ) :   0.9589 B( 15-C , 17-H ) :   0.9607
B( 15-C , 18-C ) :   0.8697 B( 18-C , 19-H ) :   0.9588 B( 18-C , 20-C ) :   0.8637
B( 18-C , 33-C ) :   0.8547 B( 20-C , 21-H ) :   0.9578 B( 20-C , 22-H ) :   0.9647
B( 20-C , 23-C ) :   0.8584 B( 23-C , 24-H ) :   0.9556 B( 23-C , 25-C ) :   0.8667
B( 23-C , 36-C ) :   0.8651 B( 25-C , 26-H ) :   0.9623 B( 25-C , 27-H ) :   0.9590
B( 28-C , 29-H ) :   0.9581 B( 28-C , 30-H ) :   0.9517 B( 28-C , 31-C ) :   0.8873
B( 31-C , 32-H ) :   0.9549 B( 31-C , 33-C ) :   0.8562 B( 31-C , 36-C ) :   0.8672
B( 33-C , 34-H ) :   0.9581 B( 33-C , 35-H ) :   0.9614 B( 36-C , 37-H ) :   0.9580
B( 36-C , 38-H ) :   0.9603 B( 39-C , 40-C ) :   0.8690 B( 39-C , 50-C ) :   0.9109
B( 39-C , 53-C ) :   0.8651 B( 40-C , 41-H ) :   0.9579 B( 40-C , 42-H ) :   0.9566
B( 40-C , 43-C ) :   0.8648 B( 43-C , 44-H ) :   0.9570 B( 43-C , 45-C ) :   0.8585
B( 43-C , 58-C ) :   0.8633 B( 45-C , 46-H ) :   0.9627 B( 45-C , 47-H ) :   0.9575
B( 45-C , 48-C ) :   0.8597 B( 48-C , 49-H ) :   0.9550 B( 48-C , 50-C ) :   0.8712
B( 48-C , 61-C ) :   0.8593 B( 50-C , 51-H ) :   0.9621 B( 50-C , 52-H ) :   0.9597
B( 53-C , 54-H ) :   0.9555 B( 53-C , 55-H ) :   0.9579 B( 53-C , 56-C ) :   0.8850
B( 56-C , 57-H ) :   0.9550 B( 56-C , 58-C ) :   0.8581 B( 56-C , 61-C ) :   0.8685
B( 58-C , 59-H ) :   0.9596 B( 58-C , 60-H ) :   0.9620 B( 61-C , 62-H ) :   0.9575
B( 61-C , 63-H ) :   0.9618

FINAL SINGLE POINT ENERGY     -1085.728277567255

DIPOLE MOMENT
-------------
                                X             Y             Z
Electronic contribution:     -1.68802       0.97956       0.01530
Nuclear contribution   :      1.65055      -0.95322      -0.02981
                        -----------------------------------------
Total Dipole Moment    :     -0.03747       0.02634      -0.01451
                        -----------------------------------------
Magnitude (a.u.)       :      0.04805
Magnitude (Debye)      :      0.12212

Rotational constants in cm-1:     0.020063     0.002505     0.002454
Rotational constants in MHz :   601.472774    75.111864    73.572025

                             ****ORCA TERMINATED NORMALLY****
TOTAL RUN TIME: 0 days 0 hours 2 minutes 26 seconds 682 msec
