                         Program Version 6.0  -  CURRENT   -
|  1> ! DLPNO-CCSD RIJCOSX def2-TZVP(-f) def2/J def2-tzvp/C verytightscf LoosePNO
|  2>
|  3> %pal nprocs 16 end
|  4> %maxcore 4000
|  5> %scf maxiter 999 end
|  6>
|  7> *xyz 0 1
|  8> C(10)       8.845181    5.786946   22.449799
|  9> C(10)       7.680306    5.937057   21.814500
| 10> H(10)       6.894014    5.850045   22.340490
| 11> C(10)       7.486244    6.226963   20.365637
| 12> H(10)       7.040037    5.563590   19.852498
| 13> C(10)       7.882887    7.342178   19.708233
| 14> C(10)       8.617380    8.443438   20.393561
| 15> H(10)       8.212011    9.302318   20.416059
| 16> C(10)       9.808495    8.298727   20.977511
| 17> H(10)      10.206755    9.079626   21.343684
| 18> C(10)      10.564435    7.037744   21.107124
| 19> H(10)      11.430364    7.009127   20.717440
| 20> C(10)      10.137630    5.935438   21.723497
| 21> H(10)      10.708664    5.176666   21.697316
| 22> C(10)       8.949467    5.415060   23.941070
| 23> C(10)       9.598136    6.591160   24.678227
| 24> H(10)      10.492631    6.767888   24.292508
| 25> H(10)       9.045132    7.402760   24.553366
| 26> C(10)       9.738301    6.297203   26.171466
| 27> H(10)      10.163332    7.079521   26.626814
| 28> C(10)       8.386610    6.027540   26.790314
| 29> H(10)       7.812684    6.828986   26.698693
| 30> H(10)       8.494847    5.834265   27.755201
| 31> C(10)       7.722253    4.838699   26.099952
| 32> H(10)       6.820963    4.675841   26.501419
| 33> C(10)       7.572941    5.154816   24.590515
| 34> H(10)       7.133040    4.393057   24.136291
| 35> H(10)       6.998526    5.953004   24.476284
| 36> C(10)       9.820505    4.142084   24.148918
| 37> H(10)       9.390889    3.369635   23.702991
| 38> H(10)      10.710879    4.278582   23.738199
| 39> C(10)       9.984949    3.845159   25.649835
| 40> H(10)      10.560750    3.036442   25.769971
| 41> C(10)      10.632236    5.045760   26.353273
| 42> H(10)      11.528387    5.215863   25.968455
| 43> H(10)      10.741492    4.849724   27.317485
| 44> C(10)       8.599722    3.588366   26.270708
| 45> H(10)       8.171164    2.814931   25.825483
| 46> H(10)       8.697812    3.376732   27.232839
| 47> C(10)       7.550536    7.577204   18.235382
| 48> C(10)       8.862152    7.855408   17.495442
| 49> H(10)       9.467845    7.079069   17.598058
| 50> H(10)       9.305063    8.644048   17.897921
| 51> C(10)       8.616511    8.116897   15.997393
| 52> H(10)       9.485982    8.300237   15.538671
| 53> C(10)       7.938857    6.892562   15.358860
| 54> H(10)       7.777278    7.062426   14.397038
| 55> H(10)       8.529904    6.102412   15.439063
| 56> C(10)       6.606774    6.619138   16.069076
| 57> H(10)       6.173322    5.814570   15.663138
| 58> C(10)       6.873169    6.357366   17.559278
| 59> H(10)       7.457394    5.563719   17.653627
| 60> H(10)       6.016834    6.162620   18.016342
| 61> C(10)       6.612548    8.784953   18.042214
| 62> H(10)       7.018462    9.587722   18.455604
| 63> H(10)       5.750152    8.609083   18.495453
| 64> C(10)       6.361304    9.049500   16.542253
| 65> H(10)       5.764202    9.845637   16.444108
| 66> C(10)       7.680757    9.324381   15.839827
| 67> H(10)       8.105450   10.128872   16.230383
| 68> H(10)       7.517523    9.496877   14.878736
| 69> C(10)       5.684173    7.829597   15.906335
| 70> H(10)       4.816262    7.655275   16.349535
| 71> H(10)       5.515105    7.999183   14.945723
| 72> *
| 73>
| 74>                          ****END OF INPUT****

CARTESIAN COORDINATES (ANGSTROEM)
---------------------------------
  C      8.845181    5.786946   22.449799
  C      7.680306    5.937057   21.814500
  H      6.894014    5.850045   22.340490
  C      7.486244    6.226963   20.365637
  H      7.040037    5.563590   19.852498
  C      7.882887    7.342178   19.708233
  C      8.617380    8.443438   20.393561
  H      8.212011    9.302318   20.416059
  C      9.808495    8.298727   20.977511
  H     10.206755    9.079626   21.343684
  C     10.564435    7.037744   21.107124
  H     11.430364    7.009127   20.717440
  C     10.137630    5.935438   21.723497
  H     10.708664    5.176666   21.697316
  C      8.949467    5.415060   23.941070
  C      9.598136    6.591160   24.678227
  H     10.492631    6.767888   24.292508
  H      9.045132    7.402760   24.553366
  C      9.738301    6.297203   26.171466
  H     10.163332    7.079521   26.626814
  C      8.386610    6.027540   26.790314
  H      7.812684    6.828986   26.698693
  H      8.494847    5.834265   27.755201
  C      7.722253    4.838699   26.099952
  H      6.820963    4.675841   26.501419
  C      7.572941    5.154816   24.590515
  H      7.133040    4.393057   24.136291
  H      6.998526    5.953004   24.476284
  C      9.820505    4.142084   24.148918
  H      9.390889    3.369635   23.702991
  H     10.710879    4.278582   23.738199
  C      9.984949    3.845159   25.649835
  H     10.560750    3.036442   25.769971
  C     10.632236    5.045760   26.353273
  H     11.528387    5.215863   25.968455
  H     10.741492    4.849724   27.317485
  C      8.599722    3.588366   26.270708
  H      8.171164    2.814931   25.825483
  H      8.697812    3.376732   27.232839
  C      7.550536    7.577204   18.235382
  C      8.862152    7.855408   17.495442
  H      9.467845    7.079069   17.598058
  H      9.305063    8.644048   17.897921
  C      8.616511    8.116897   15.997393
  H      9.485982    8.300237   15.538671
  C      7.938857    6.892562   15.358860
  H      7.777278    7.062426   14.397038
  H      8.529904    6.102412   15.439063
  C      6.606774    6.619138   16.069076
  H      6.173322    5.814570   15.663138
  C      6.873169    6.357366   17.559278
  H      7.457394    5.563719   17.653627
  H      6.016834    6.162620   18.016342
  C      6.612548    8.784953   18.042214
  H      7.018462    9.587722   18.455604
  H      5.750152    8.609083   18.495453
  C      6.361304    9.049500   16.542253
  H      5.764202    9.845637   16.444108
  C      7.680757    9.324381   15.839827
  H      8.105450   10.128872   16.230383
  H      7.517523    9.496877   14.878736
  C      5.684173    7.829597   15.906335
  H      4.816262    7.655275   16.349535
  H      5.515105    7.999183   14.945723

 Total Charge           Charge          ....    0
 Multiplicity           Mult            ....    1
 Number of Electrons    NEL             ....  204
 Basis Dimension        Dim             ....  888

ORBITAL ENERGIES
----------------

  NO   OCC          E(Eh)            E(eV)
   0   2.0000     -11.222397      -305.3769
   1   2.0000     -11.219928      -305.3098
   2   2.0000     -11.219007      -305.2847
   3   2.0000     -11.216634      -305.2201
   4   2.0000     -11.206165      -304.9353
   5   2.0000     -11.205212      -304.9093
   6   2.0000     -11.204291      -304.8843
   7   2.0000     -11.203362      -304.8590
   8   2.0000     -11.197566      -304.7013
   9   2.0000     -11.194737      -304.6243
  10   2.0000     -11.194588      -304.6202
  11   2.0000     -11.193619      -304.5939
  12   2.0000     -11.192557      -304.5649
  13   2.0000     -11.192280      -304.5574
  14   2.0000     -11.191375      -304.5328
  15   2.0000     -11.189561      -304.4834
  16   2.0000     -11.178619      -304.1857
  17   2.0000     -11.177450      -304.1539
  18   2.0000     -11.175466      -304.0999
  19   2.0000     -11.174650      -304.0777
  20   2.0000     -11.174282      -304.0677
  21   2.0000     -11.173868      -304.0564
  22   2.0000     -11.173381      -304.0431
  23   2.0000     -11.172436      -304.0174
  24   2.0000     -11.171934      -304.0038
  25   2.0000     -11.170862      -303.9746
  26   2.0000     -11.170607      -303.9677
  27   2.0000     -11.170472      -303.9640
  28   2.0000      -1.169444       -31.8222
  29   2.0000      -1.167028       -31.7565
  30   2.0000      -1.126723       -30.6597
  31   2.0000      -1.085959       -29.5504
  32   2.0000      -1.067061       -29.0362
  33   2.0000      -1.046675       -28.4815
  34   2.0000      -1.045220       -28.4419
  35   2.0000      -1.043113       -28.3845
  36   2.0000      -1.042673       -28.3726
  37   2.0000      -1.027876       -27.9699
  38   2.0000      -1.020605       -27.7721
  39   2.0000      -0.951769       -25.8989
  40   2.0000      -0.932682       -25.3796
  41   2.0000      -0.931052       -25.3352
  42   2.0000      -0.930566       -25.3220
  43   2.0000      -0.927634       -25.2422
  44   2.0000      -0.893150       -24.3039
  45   2.0000      -0.825108       -22.4523
  46   2.0000      -0.821766       -22.3614
  47   2.0000      -0.814981       -22.1768
  48   2.0000      -0.814222       -22.1561
  49   2.0000      -0.811397       -22.0792
  50   2.0000      -0.800253       -21.7760
  51   2.0000      -0.776338       -21.1252
  52   2.0000      -0.749794       -20.4029
  53   2.0000      -0.722799       -19.6684
  54   2.0000      -0.722106       -19.6495
  55   2.0000      -0.688208       -18.7271
  56   2.0000      -0.683262       -18.5925
  57   2.0000      -0.653639       -17.7864
  58   2.0000      -0.646135       -17.5822
  59   2.0000      -0.638354       -17.3705
  60   2.0000      -0.637712       -17.3530
  61   2.0000      -0.637192       -17.3389
  62   2.0000      -0.636622       -17.3234
  63   2.0000      -0.635931       -17.3046
  64   2.0000      -0.634293       -17.2600
  65   2.0000      -0.623437       -16.9646
  66   2.0000      -0.612055       -16.6549
  67   2.0000      -0.597133       -16.2488
  68   2.0000      -0.581711       -15.8292
  69   2.0000      -0.578121       -15.7315
  70   2.0000      -0.575932       -15.6719
  71   2.0000      -0.573184       -15.5971
  72   2.0000      -0.572067       -15.5667
  73   2.0000      -0.564559       -15.3624
  74   2.0000      -0.557728       -15.1766
  75   2.0000      -0.551126       -14.9969
  76   2.0000      -0.549034       -14.9400
  77   2.0000      -0.547990       -14.9116
  78   2.0000      -0.547694       -14.9035
  79   2.0000      -0.522601       -14.2207
  80   2.0000      -0.516576       -14.0568
  81   2.0000      -0.483422       -13.1546
  82   2.0000      -0.475122       -12.9287
  83   2.0000      -0.472889       -12.8680
  84   2.0000      -0.464564       -12.6414
  85   2.0000      -0.463751       -12.6193
  86   2.0000      -0.459908       -12.5147
  87   2.0000      -0.459357       -12.4997
  88   2.0000      -0.458305       -12.4711
  89   2.0000      -0.457151       -12.4397
  90   2.0000      -0.452399       -12.3104
  91   2.0000      -0.451917       -12.2973
  92   2.0000      -0.417182       -11.3521
  93   2.0000      -0.407103       -11.0778
  94   2.0000      -0.406065       -11.0496
  95   2.0000      -0.402302       -10.9472
  96   2.0000      -0.399604       -10.8738
  97   2.0000      -0.399413       -10.8686
  98   2.0000      -0.391697       -10.6586
  99   2.0000      -0.343375        -9.3437
 100   2.0000      -0.339817        -9.2469
 101   2.0000      -0.301425        -8.2022
 102   0.0000       0.124762         3.3949
 103   0.0000       0.131598         3.5810
 104   0.0000       0.135164         3.6780
 105   0.0000       0.156755         4.2655
 106   0.0000       0.160279         4.3614

E(0)                                       ...  -1081.281139371
E(0)                                       ...  -1081.281139371
E(CORR)(strong-pairs)                      ...     -4.089648283
E(CORR)(weak-pairs)                        ...     -0.357490982
E(CORR)(corrected)                         ...     -4.447139264
E(TOT)                                     ...  -1085.728278636

MULLIKEN ATOMIC CHARGES
-----------------------
   0 C :    0.250132
   1 C :   -0.114193
   2 H :    0.087426
   3 C :   -0.104002
   4 H :    0.087648
   5 C :    0.281601
   6 C :   -0.320902
   7 H :    0.072444
   8 C :   -0.058693
   9 H :    0.075453
  10 C :   -0.081582
  11 H :    0.075170
  12 C :   -0.315455
  13 H :    0.072241
  14 C :    0.273975
  15 C :   -0.406090
  16 H :    0.114721
  17 H :    0.107705
  18 C :    0.200566
  19 H :    0.086176
  20 C :   -0.378844
  21 H :    0.092278
  22 H :    0.103571
  23 C :    0.222125
  24 H :    0.083492
  25 C :   -0.411653
  26 H :    0.103312
  27 H :    0.097421
  28 C :   -0.411283
  29 H :    0.106499
  30 H :    0.100682
  31 C :    0.183001
  32 H :    0.088711
  33 C :   -0.368175
  34 H :    0.091224
  35 H :    0.105111
  36 C :   -0.373719
  37 H :    0.093078
  38 H :    0.101905
  39 C :    0.245855
  40 C :   -0.413022
  41 H :    0.103991
  42 H :    0.113091
  43 C :    0.210799
  44 H :    0.085587
  45 C :   -0.375859
  46 H :    0.101914
  47 H :    0.093222
  48 C :    0.224734
  49 H :    0.083068
  50 C :   -0.408982
  51 H :    0.103402
  52 H :    0.096317
  53 C :   -0.394243
  54 H :    0.099918
  55 H :    0.102882
  56 C :    0.181041
  57 H :    0.087037
  58 C :   -0.375923
  59 H :    0.089916
  60 H :    0.104501
  61 C :   -0.366766
  62 H :    0.091718
  63 H :    0.102724
Sum of atomic charges:   -0.0000001

LOEWDIN ATOMIC CHARGES
----------------------
   0 C :   -0.063572
   1 C :   -0.083362
   2 H :    0.095455
   3 C :   -0.076296
   4 H :    0.094297
   5 C :   -0.060329
   6 C :   -0.069361
   7 H :    0.093096
   8 C :   -0.094681
   9 H :    0.092512
  10 C :   -0.097505
  11 H :    0.092535
  12 C :   -0.068004
  13 H :    0.093930
  14 C :   -0.149563
  15 C :   -0.131823
  16 H :    0.105646
  17 H :    0.105347
  18 C :   -0.166329
  19 H :    0.105658
  20 C :   -0.161439
  21 H :    0.100292
  22 H :    0.100263
  23 C :   -0.158795
  24 H :    0.104240
  25 C :   -0.132549
  26 H :    0.101674
  27 H :    0.101619
  28 C :   -0.127614
  29 H :    0.102258
  30 H :    0.099880
  31 C :   -0.162639
  32 H :    0.104244
  33 C :   -0.149395
  34 H :    0.097440
  35 H :    0.097570
  36 C :   -0.153083
  37 H :    0.097814
  38 H :    0.097832
  39 C :   -0.158451
  40 C :   -0.130315
  41 H :    0.104753
  42 H :    0.104843
  43 C :   -0.158674
  44 H :    0.103721
  45 C :   -0.153323
  46 H :    0.097916
  47 H :    0.098031
  48 C :   -0.164111
  49 H :    0.105003
  50 C :   -0.132653
  51 H :    0.103106
  52 H :    0.101486
  53 C :   -0.126395
  54 H :    0.100228
  55 H :    0.102868
  56 C :   -0.164690
  57 H :    0.105396
  58 C :   -0.157270
  59 H :    0.098848
  60 H :    0.099268
  61 C :   -0.153731
  62 H :    0.098282
  63 H :    0.098602

  Mayer bond orders larger than 0.100000
B(  0-C ,  1-C ) :   1.7396 B(  0-C , 12-C ) :   0.9479 B(  0-C , 14-C ) :   0.8367
B(  1-C ,  2-H ) :   0.9517 B(  1-C ,  3-C ) :   0.8556 B(  3-C ,  4-H ) :   0.9571
B(  3-C ,  5-C ) :   1.7155 B(  5-C ,  6-C ) :   0.9326 B(  5-C , 39-C ) :   0.8437
B(  6-C ,  7-H ) :   0.9635 B(  6-C ,  8-C ) :   1.7826 B(  8-C ,  9-H ) :   0.9499
B(  8-C , 10-C ) :   0.8995 B( 10-C , 11-H ) :   0.9511 B( 10-C , 12-C ) :   1.7821
B( 12-C , 13-H ) :   0.9634 B( 14-C , 15-C ) :   0.8512 B( 14-C , 25-C ) :   0.9084
B( 14-C , 28-C ) :   0.8726 B( 15-C , 16-H ) :   0.9588 B( 15-C , 17-H ) :   0.9607
B( 15-C , 18-C ) :   0.8698 B( 18-C , 19-H ) :   0.9586 B( 18-C , 20-C ) :   0.8636
B( 18-C , 33-C ) :   0.8547 B( 20-C , 21-H ) :   0.9578 B( 20-C , 22-H ) :   0.9648
B( 20-C , 23-C ) :   0.8583 B( 23-C , 24-H ) :   0.9557 B( 23-C , 25-C ) :   0.8666
B( 23-C , 36-C ) :   0.8650 B( 25-C , 26-H ) :   0.9623 B( 25-C , 27-H ) :   0.9590
B( 28-C , 29-H ) :   0.9581 B( 28-C , 30-H ) :   0.9517 B( 28-C , 31-C ) :   0.8873
B( 31-C , 32-H ) :   0.9549 B( 31-C , 33-C ) :   0.8562 B( 31-C , 36-C ) :   0.8672
B( 33-C , 34-H ) :   0.9581 B( 33-C , 35-H ) :   0.9614 B( 36-C , 37-H ) :   0.9580
B( 36-C , 38-H ) :   0.9602 B( 39-C , 40-C ) :   0.8690 B( 39-C , 50-C ) :   0.9109
B( 39-C , 53-C ) :   0.8651 B( 40-C , 41-H ) :   0.9579 B( 40-C , 42-H ) :   0.9566
B( 40-C , 43-C ) :   0.8648 B( 43-C , 44-H ) :   0.9570 B( 43-C , 45-C ) :   0.8585
B( 43-C , 58-C ) :   0.8633 B( 45-C , 46-H ) :   0.9627 B( 45-C , 47-H ) :   0.9575
B( 45-C , 48-C ) :   0.8597 B( 48-C , 49-H ) :   0.9549 B( 48-C , 50-C ) :   0.8712
B( 48-C , 61-C ) :   0.8594 B( 50-C , 51-H ) :   0.9621 B( 50-C , 52-H ) :   0.9597
B( 53-C , 54-H ) :   0.9555 B( 53-C , 55-H ) :   0.9579 B( 53-C , 56-C ) :   0.8850
B( 56-C , 57-H ) :   0.9550 B( 56-C , 58-C ) :   0.8581 B( 56-C , 61-C ) :   0.8686
B( 58-C , 59-H ) :   0.9596 B( 58-C , 60-H ) :   0.9620 B( 61-C , 62-H ) :   0.9574
B( 61-C , 63-H ) :   0.9618

FINAL SINGLE POINT ENERGY     -1085.728278635796

DIPOLE MOMENT
-------------
                                X             Y             Z
Electronic contribution:      1.68803       0.97956      -0.01530
Nuclear contribution   :     -1.65055      -0.95322       0.02981
                        -----------------------------------------
Total Dipole Moment    :      0.03747       0.02634       0.01451
                        -----------------------------------------
Magnitude (a.u.)       :      0.04805
Magnitude (Debye)      :      0.12213

Rotational constants in cm-1:     0.020063     0.002505     0.002454
Rotational constants in MHz :   601.472733    75.111862    73.572023

                             ****ORCA TERMINATED NORMALLY****
TOTAL RUN TIME: 0 days 0 hours 2 minutes 39 seconds 260 msec
