                         Program Version 6.0  -  CURRENT   -
|  1> ! DLPNO-CCSD(T1) NOTRAH LED RIJK aug-cc-pVTZ aug-cc-pVQZ/C aug-cc-pVQZ/JK verytightscf TightPNO
|  2>
|  3> %pal nprocs 4 end
|  4>
|  5> %scf maxiter 999 end
|  6> %basis auxjk "autoaux" auxc "autoaux" autoauxlmax true end
|  7>
|  8> %mdci printlevel 3 end
|  9>
| 10> *xyz 0	1
| 11> O(1)	-0.702196054	-0.056060256	 0.009942262
| 12> H(1)	-1.022193224	 0.846775782	-0.011488714
| 13> H(1)	 0.257521062	 0.042121496	 0.005218999
| 14> O(2)	 2.220871067	 0.026716792	 0.000620476
| 15> H(2)	 2.597492682	-0.411663274	 0.766744858
| 16> H(2)	 2.593135384	-0.449496183	-0.744782026
| 17> *
| 18>
| 19>                          ****END OF INPUT****

CARTESIAN COORDINATES (ANGSTROEM)
---------------------------------
  O     -0.702196   -0.056060    0.009942
  H     -1.022193    0.846776   -0.011489
  H      0.257521    0.042121    0.005219
  O      2.220871    0.026717    0.000620
  H      2.597493   -0.411663    0.766745
  H      2.593135   -0.449496   -0.744782

 Total Charge           Charge          ....    0
 Multiplicity           Mult            ....    1
 Number of Electrons    NEL             ....   20
 Basis Dimension        Dim             ....  184

ORBITAL ENERGIES
----------------

  NO   OCC          E(Eh)            E(eV)
   0   2.0000     -20.592343      -560.3461
   1   2.0000     -20.535861      -558.8092
   2   2.0000      -1.380072       -37.5537
   3   2.0000      -1.322564       -35.9888
   4   2.0000      -0.740747       -20.1568
   5   2.0000      -0.692471       -18.8431
   6   2.0000      -0.615546       -16.7499
   7   2.0000      -0.559346       -15.2206
   8   2.0000      -0.532106       -14.4794
   9   2.0000      -0.481176       -13.0935
  10   0.0000       0.022520         0.6128
  11   0.0000       0.045332         1.2335
  12   0.0000       0.047004         1.2791
  13   0.0000       0.075583         2.0567
  14   0.0000       0.122752         3.3402

MULLIKEN ATOMIC CHARGES
-----------------------
   0 O :   -0.503072
   1 H :    0.196208
   2 H :    0.311453
   3 O :   -0.445418
   4 H :    0.220406
   5 H :    0.220423
Sum of atomic charges:    0.0000000

LOEWDIN ATOMIC CHARGES
----------------------
   0 O :    1.040799
   1 H :   -0.514968
   2 H :   -0.671109
   3 O :    1.086281
   4 H :   -0.470513
   5 H :   -0.470490

  Mayer bond orders larger than 0.100000
B(  0-O ,  1-H ) :   1.0360 B(  0-O ,  2-H ) :   0.9183 B(  3-O ,  4-H ) :   1.0025
B(  3-O ,  5-H ) :   1.0025

E(0)                                       ...   -152.126521311
E(0)                                       ...   -152.126521311
E(CORR)(strong-pairs)                      ...     -0.548445035
E(CORR)(weak-pairs)                        ...     -0.000150702
E(CORR)(corrected)                         ...     -0.548595736
E(TOT)                                     ...   -152.675117048
E(CCSD(T))                                 ...   -152.692789513
FINAL SINGLE POINT ENERGY      -152.692789513064

DIPOLE MOMENT
-------------
                                X             Y             Z
Electronic contribution:     -0.01792      -0.03527       0.00090
Nuclear contribution   :      1.15582       0.07194      -0.00452
                        -----------------------------------------
Total Dipole Moment    :      1.13790       0.03667      -0.00362
                        -----------------------------------------
Magnitude (a.u.)       :      1.13850
Magnitude (Debye)      :      2.89382

Rotational constants in cm-1:     7.363184     0.211513     0.211473
Rotational constants in MHz : 220742.710154  6341.007208  6339.811674

                             ****ORCA TERMINATED NORMALLY****
TOTAL RUN TIME: 0 days 0 hours 1 minutes 12 seconds 208 msec
