                         Program Version 5.0  -  CURRENT   -
|  1> ! DLPNO-CCSD(T1) aug-cc-pVQZ DEFGRID3 RIJCOSX def2/J aug-cc-pV5Z/C verytightscf TightPNO LED
|  2>
|  3> %pal nprocs 16 end
|  4> %maxcore 4000
|  5> %scf maxiter 999 end
|  6> %basis auxj "autoaux" auxc "autoaux" autoauxlmax true end
|  7> %mdci TCutPNO 1e-7 printlevel 3 end
|  8>
|  9> *xyz 0 1
| 10> O(1)    -1.753042425     0.416462959     0.356105280
| 11> H(1)    -1.120933301    -0.183098298     0.812596940
| 12> H(1)    -2.593310567    -0.048459739     0.359102074
| 13> O(2)     2.482542995    -1.248988714     0.449488905
| 14> H(2)     2.616828786    -1.798226083    -0.326968465
| 15> H(2)     2.828107886    -0.362220961     0.204648083
| 16> O(3)     0.012631031    -1.241255898     1.573836894
| 17> H(3)     0.908618001    -1.252949881     1.168524322
| 18> H(3)     0.168950409    -1.135399007     2.515952529
| 19> O(4)     3.364853284     1.252522284    -0.119963272
| 20> H(4)     2.731853532     1.891821037    -0.517486897
| 21> H(4)     4.212012919     1.443946099    -0.529713339
| 22> O(5)    -0.845377446     1.902266646    -1.724481185
| 23> H(5)    -1.198971324     1.335278306    -1.003913817
| 24> H(5)    -0.953209570     1.388839038    -2.529056860
| 25> O(6)     1.597560181     2.978636709    -1.236245995
| 26> H(6)     1.417961949     3.808511891    -0.786488687
| 27> H(6)     0.711446199     2.593888593    -1.420550970
| 28> *
| 29>
| 30>                          ****END OF INPUT****

CARTESIAN COORDINATES (ANGSTROEM)
---------------------------------
  O     -1.753042    0.416463    0.356105
  H     -1.120933   -0.183098    0.812597
  H     -2.593311   -0.048460    0.359102
  O      2.482543   -1.248989    0.449489
  H      2.616829   -1.798226   -0.326968
  H      2.828108   -0.362221    0.204648
  O      0.012631   -1.241256    1.573837
  H      0.908618   -1.252950    1.168524
  H      0.168950   -1.135399    2.515953
  O      3.364853    1.252522   -0.119963
  H      2.731854    1.891821   -0.517487
  H      4.212013    1.443946   -0.529713
  O     -0.845377    1.902267   -1.724481
  H     -1.198971    1.335278   -1.003914
  H     -0.953210    1.388839   -2.529057
  O      1.597560    2.978637   -1.236246
  H      1.417962    3.808512   -0.786489
  H      0.711446    2.593889   -1.420551

 Total Charge           Charge          ....    0
 Multiplicity           Mult            ....    1
 Number of Electrons    NEL             ....   60
 Basis Dimension        Dim             .... 1032

ORBITAL ENERGIES
----------------

  NO   OCC          E(Eh)            E(eV)
   0   2.0000     -20.551808      -559.2431
   1   2.0000     -20.551725      -559.2409
   2   2.0000     -20.551070      -559.2230
   3   2.0000     -20.550957      -559.2200
   4   2.0000     -20.550597      -559.2102
   5   2.0000     -20.550523      -559.2082
   6   2.0000      -1.356615       -36.9154
   7   2.0000      -1.349155       -36.7124
   8   2.0000      -1.348618       -36.6978
   9   2.0000      -1.333259       -36.2798
  10   2.0000      -1.332247       -36.2523
  11   2.0000      -1.324254       -36.0348
  12   2.0000      -0.717293       -19.5185
  13   2.0000      -0.717014       -19.5109
  14   2.0000      -0.715614       -19.4729
  15   2.0000      -0.715384       -19.4666
  16   2.0000      -0.713005       -19.4019
  17   2.0000      -0.712663       -19.3926
  18   2.0000      -0.622847       -16.9485
  19   2.0000      -0.605178       -16.4677
  20   2.0000      -0.601189       -16.3592
  21   2.0000      -0.562068       -15.2947
  22   2.0000      -0.557838       -15.1795
  23   2.0000      -0.539941       -14.6925
  24   2.0000      -0.505162       -13.7462
  25   2.0000      -0.504245       -13.7212
  26   2.0000      -0.501041       -13.6340
  27   2.0000      -0.499844       -13.6014
  28   2.0000      -0.498661       -13.5693
  29   2.0000      -0.496098       -13.4995
  30   0.0000       0.022671         0.6169
  31   0.0000       0.032974         0.8973
  32   0.0000       0.037804         1.0287
  33   0.0000       0.038323         1.0428
  34   0.0000       0.047898         1.3034

MULLIKEN ATOMIC CHARGES
-----------------------
   0 O :   -0.555541
   1 H :    0.258524
   2 H :    0.299120
   3 O :   -0.576268
   4 H :    0.307673
   5 H :    0.261208
   6 O :   -0.573091
   7 H :    0.265004
   8 H :    0.314860
   9 O :   -0.551576
  10 H :    0.256172
  11 H :    0.293187
  12 O :   -0.573031
  13 H :    0.254797
  14 H :    0.307731
  15 O :   -0.566133
  16 H :    0.305584
  17 H :    0.271782
Sum of atomic charges:    0.0000000

LOEWDIN ATOMIC CHARGES
----------------------
   0 O :    1.686946
   1 H :   -0.988042
   2 H :   -0.701274
   3 O :    1.686707
   4 H :   -0.700220
   5 H :   -0.986456
   6 O :    1.685954
   7 H :   -0.985253
   8 H :   -0.698321
   9 O :    1.687064
  10 H :   -0.988104
  11 H :   -0.701274
  12 O :    1.686680
  13 H :   -0.986543
  14 H :   -0.700255
  15 O :    1.686013
  16 H :   -0.698400
  17 H :   -0.985221

  Mayer bond orders larger than 0.100000
B(  0-O ,  1-H ) :   0.9519 B(  0-O ,  2-H ) :   0.9500 B(  0-O , 13-H ) :   0.1312
B(  1-H ,  6-O ) :   0.1328 B(  3-O ,  4-H ) :   0.9395 B(  3-O ,  5-H ) :   0.9378
B(  3-O ,  7-H ) :   0.1329 B(  5-H ,  9-O ) :   0.1305 B(  6-O ,  7-H ) :   0.9314
B(  6-O ,  8-H ) :   0.9332 B(  9-O , 10-H ) :   0.9465 B(  9-O , 11-H ) :   0.9608
B( 10-H , 15-O ) :   0.1342 B( 12-O , 13-H ) :   0.9410 B( 12-O , 14-H ) :   0.9381
B( 12-O , 17-H ) :   0.1258 B( 15-O , 16-H ) :   0.9405 B( 15-O , 17-H ) :   0.9263

E(0)                                       ...   -456.439452965
E(0)                                       ...   -456.439452965
E(CORR)(strong-pairs)                      ...     -1.749259078
E(CORR)(weak-pairs)                        ...     -0.002509504
E(CORR)(corrected)                         ...     -1.751768582
E(TOT)                                     ...   -458.191221547
E(CCSD(T))                                 ...   -458.251540145
FINAL SINGLE POINT ENERGY      -458.251540145348

DIPOLE MOMENT
-------------
                                X             Y             Z
Electronic contribution:     -0.00103       0.08769       0.13157
Nuclear contribution   :      0.00917      -0.36404      -0.54173
                        -----------------------------------------
Total Dipole Moment    :      0.00814      -0.27635      -0.41016
                        -----------------------------------------
Magnitude (a.u.)       :      0.49464
Magnitude (Debye)      :      1.25726

Rotational constants in cm-1:     0.043239     0.041901     0.022852
Rotational constants in MHz :  1296.287227  1256.174798   685.073743

                             ****ORCA TERMINATED NORMALLY****
TOTAL RUN TIME: 0 days 1 hours 34 minutes 51 seconds 634 msec
