                         Program Version 5.0  -  CURRENT   -
|  1> ! DLPNO-CCSD(T1) aug-cc-pVQZ DEFGRID3 RIJCOSX def2/J aug-cc-pV5Z/C verytightscf TightPNO LED
|  2>
|  3> %pal nprocs 16 end
|  4> %maxcore 6000
|  5> %scf maxiter 999 end
|  6> %basis auxj "autoaux" auxc "autoaux" autoauxlmax true end
|  7> %mdci TCutPNO 1e-7 printlevel 3 end
|  8>
|  9> * xyz 0 1
| 10> O(1)     1.597560181     2.978636709    -1.236245995
| 11> H(1)     1.417961949     3.808511891    -0.786488687
| 12> H(1)     0.711446199     2.593888593    -1.420550970
| 13> O(2)    -1.753042425     0.416462959     0.356105280
| 14> H(2)    -1.120933301    -0.183098298     0.812596940
| 15> H(2)    -2.593310567    -0.048459739     0.359102074
| 16> *
| 17>
| 18>                          ****END OF INPUT****

CARTESIAN COORDINATES (ANGSTROEM)
---------------------------------
  O      1.597560    2.978637   -1.236246
  H      1.417962    3.808512   -0.786489
  H      0.711446    2.593889   -1.420551
  O     -1.753042    0.416463    0.356105
  H     -1.120933   -0.183098    0.812597
  H     -2.593311   -0.048460    0.359102

 Total Charge           Charge          ....    0
 Multiplicity           Mult            ....    1
 Number of Electrons    NEL             ....   20
 Basis Dimension        Dim             ....  344

ORBITAL ENERGIES
----------------

  NO   OCC          E(Eh)            E(eV)
   0   2.0000     -20.572458      -559.8050
   1   2.0000     -20.558083      -559.4139
   2   2.0000      -1.350542       -36.7501
   3   2.0000      -1.336230       -36.3607
   4   2.0000      -0.717123       -19.5139
   5   2.0000      -0.701545       -19.0900
   6   2.0000      -0.586792       -15.9674
   7   2.0000      -0.572795       -15.5865
   8   2.0000      -0.514891       -14.0109
   9   2.0000      -0.500501       -13.6193
  10   0.0000       0.023125         0.6293
  11   0.0000       0.038166         1.0386
  12   0.0000       0.044055         1.1988
  13   0.0000       0.055032         1.4975
  14   0.0000       0.115634         3.1466

MULLIKEN ATOMIC CHARGES
-----------------------
   0 O :   -0.616572
   1 H :    0.299288
   2 H :    0.317177
   3 O :   -0.611469
   4 H :    0.312343
   5 H :    0.299233
Sum of atomic charges:    0.0000000

LOEWDIN ATOMIC CHARGES
----------------------
   0 O :    1.568584
   1 H :   -0.809321
   2 H :   -0.761262
   3 O :    1.569117
   4 H :   -0.758244
   5 H :   -0.808874

  Mayer bond orders larger than 0.100000
B(  0-O ,  1-H ) :   0.9586 B(  0-O ,  2-H ) :   0.9437 B(  3-O ,  4-H ) :   0.9513
B(  3-O ,  5-H ) :   0.9642

E(0)                                       ...   -152.130312025
E(0)                                       ...   -152.130312025
E(CORR)(strong-pairs)                      ...     -0.578029312
E(CORR)(weak-pairs)                        ...     -0.000374710
E(CORR)(corrected)                         ...     -0.578404022
E(TOT)                                     ...   -152.708716047
E(CCSD(T))                                 ...   -152.727715189
FINAL SINGLE POINT ENERGY      -152.727715189026

DIPOLE MOMENT
-------------
                                X             Y             Z
Electronic contribution:      0.19674       0.08831      -0.11232
Nuclear contribution   :     -1.06032      -0.51553       0.60341
                        -----------------------------------------
Total Dipole Moment    :     -0.86358      -0.42722       0.49109
                        -----------------------------------------
Magnitude (a.u.)       :      1.08141
Magnitude (Debye)      :      2.74873

Rotational constants in cm-1:     7.552581     0.090266     0.090000
Rotational constants in MHz : 226420.693437  2706.111468  2698.132743

                             ****ORCA TERMINATED NORMALLY****
TOTAL RUN TIME: 0 days 0 hours 2 minutes 37 seconds 64 msec
