                         Program Version 5.0  -  CURRENT   -
|  1> ! DLPNO-CCSD(T1) aug-cc-pVQZ DEFGRID3 RIJCOSX def2/J aug-cc-pV5Z/C verytightscf TightPNO LED
|  2>
|  3> %pal nprocs 16 end
|  4> %maxcore 6000
|  5> %scf maxiter 999 end
|  6> %basis auxj "autoaux" auxc "autoaux" autoauxlmax true end
|  7> %mdci TCutPNO 1e-7 printlevel 3 end
|  8>
|  9> * xyz 0 1
| 10> O(1)     1.597560181     2.978636709    -1.236245995
| 11> H(1)     1.417961949     3.808511891    -0.786488687
| 12> H(1)     0.711446199     2.593888593    -1.420550970
| 13> O(2)     2.482542995    -1.248988714     0.449488905
| 14> H(2)     2.616828786    -1.798226083    -0.326968465
| 15> H(2)     2.828107886    -0.362220961     0.204648083
| 16> *
| 17>
| 18>                          ****END OF INPUT****

CARTESIAN COORDINATES (ANGSTROEM)
---------------------------------
  O      1.597560    2.978637   -1.236246
  H      1.417962    3.808512   -0.786489
  H      0.711446    2.593889   -1.420551
  O      2.482543   -1.248989    0.449489
  H      2.616829   -1.798226   -0.326968
  H      2.828108   -0.362221    0.204648

 Total Charge           Charge          ....    0
 Multiplicity           Mult            ....    1
 Number of Electrons    NEL             ....   20
 Basis Dimension        Dim             ....  344

ORBITAL ENERGIES
----------------

  NO   OCC          E(Eh)            E(eV)
   0   2.0000     -20.572361      -559.8024
   1   2.0000     -20.560437      -559.4779
   2   2.0000      -1.350434       -36.7472
   3   2.0000      -1.338866       -36.4324
   4   2.0000      -0.715742       -19.4763
   5   2.0000      -0.705362       -19.1939
   6   2.0000      -0.587193       -15.9783
   7   2.0000      -0.574536       -15.6339
   8   2.0000      -0.514724       -14.0064
   9   2.0000      -0.503002       -13.6874
  10   0.0000       0.023048         0.6272
  11   0.0000       0.036059         0.9812
  12   0.0000       0.044409         1.2084
  13   0.0000       0.057784         1.5724
  14   0.0000       0.107622         2.9285

MULLIKEN ATOMIC CHARGES
-----------------------
   0 O :   -0.612876
   1 H :    0.299938
   2 H :    0.313395
   3 O :   -0.608018
   4 H :    0.293858
   5 H :    0.313703
Sum of atomic charges:   -0.0000000

LOEWDIN ATOMIC CHARGES
----------------------
   0 O :    1.569297
   1 H :   -0.807951
   2 H :   -0.759709
   3 O :    1.569618
   4 H :   -0.809521
   5 H :   -0.761735

  Mayer bond orders larger than 0.100000
B(  0-O ,  1-H ) :   0.9627 B(  0-O ,  2-H ) :   0.9469 B(  3-O ,  4-H ) :   0.9668
B(  3-O ,  5-H ) :   0.9483

E(0)                                       ...   -152.130187865
E(0)                                       ...   -152.130187865
E(CORR)(strong-pairs)                      ...     -0.578010050
E(CORR)(weak-pairs)                        ...     -0.000380663
E(CORR)(corrected)                         ...     -0.578390713
E(TOT)                                     ...   -152.708578578
E(CCSD(T))                                 ...   -152.727574787
FINAL SINGLE POINT ENERGY      -152.727574787370

DIPOLE MOMENT
-------------
                                X             Y             Z
Electronic contribution:      0.09724      -0.10978       0.12508
Nuclear contribution   :     -0.48765       0.65145      -0.62914
                        -----------------------------------------
Total Dipole Moment    :     -0.39041       0.54167      -0.50406
                        -----------------------------------------
Magnitude (a.u.)       :      0.83660
Magnitude (Debye)      :      2.12646

Rotational constants in cm-1:     6.721585     0.086237     0.085953
Rotational constants in MHz : 201508.043379  2585.328061  2576.799099

                             ****ORCA TERMINATED NORMALLY****
TOTAL RUN TIME: 0 days 0 hours 2 minutes 38 seconds 307 msec
