                         Program Version 5.0  -  CURRENT   -
|  1> ! DLPNO-CCSD(T1) aug-cc-pVQZ DEFGRID3 RIJCOSX def2/J aug-cc-pV5Z/C verytightscf TightPNO LED
|  2>
|  3> %pal nprocs 16 end
|  4> %maxcore 6000
|  5> %scf maxiter 999 end
|  6> %basis auxj "autoaux" auxc "autoaux" autoauxlmax true end
|  7> %mdci TCutPNO 1e-7 printlevel 3 end
|  8>
|  9> * xyz 0 1
| 10> O(1)     1.597560181     2.978636709    -1.236245995
| 11> H(1)     1.417961949     3.808511891    -0.786488687
| 12> H(1)     0.711446199     2.593888593    -1.420550970
| 13> O(2)     3.364853284     1.252522284    -0.119963272
| 14> H(2)     2.731853532     1.891821037    -0.517486897
| 15> H(2)     4.212012919     1.443946099    -0.529713339
| 16> *
| 17>
| 18>                          ****END OF INPUT****

CARTESIAN COORDINATES (ANGSTROEM)
---------------------------------
  O      1.597560    2.978637   -1.236246
  H      1.417962    3.808512   -0.786489
  H      0.711446    2.593889   -1.420551
  O      3.364853    1.252522   -0.119963
  H      2.731854    1.891821   -0.517487
  H      4.212013    1.443946   -0.529713

 Total Charge           Charge          ....    0
 Multiplicity           Mult            ....    1
 Number of Electrons    NEL             ....   20
 Basis Dimension        Dim             ....  344

ORBITAL ENERGIES
----------------

  NO   OCC          E(Eh)            E(eV)
   0   2.0000     -20.598791      -560.5216
   1   2.0000     -20.521390      -558.4154
   2   2.0000      -1.382737       -37.6262
   3   2.0000      -1.305180       -35.5157
   4   2.0000      -0.744268       -20.2526
   5   2.0000      -0.694007       -18.8849
   6   2.0000      -0.616500       -16.7758
   7   2.0000      -0.553620       -15.0648
   8   2.0000      -0.524697       -14.2777
   9   2.0000      -0.469161       -12.7665
  10   0.0000       0.018029         0.4906
  11   0.0000       0.039403         1.0722
  12   0.0000       0.044853         1.2205
  13   0.0000       0.068199         1.8558
  14   0.0000       0.102818         2.7978

MULLIKEN ATOMIC CHARGES
-----------------------
   0 O :   -0.542165
   1 H :    0.306902
   2 H :    0.321850
   3 O :   -0.614186
   4 H :    0.240007
   5 H :    0.287592
Sum of atomic charges:    0.0000000

LOEWDIN ATOMIC CHARGES
----------------------
   0 O :    1.675863
   1 H :   -0.707859
   2 H :   -0.658521
   3 O :    1.574694
   4 H :   -1.082427
   5 H :   -0.801750

  Mayer bond orders larger than 0.100000
B(  0-O ,  1-H ) :   0.9414 B(  0-O ,  2-H ) :   0.9269 B(  3-O ,  4-H ) :   0.9940
B(  3-O ,  5-H ) :   0.9645

E(0)                                       ...   -152.132405462
E(0)                                       ...   -152.132405462
E(CORR)(strong-pairs)                      ...     -0.580694954
E(CORR)(weak-pairs)                        ...     -0.000449505
E(CORR)(corrected)                         ...     -0.581144460
E(TOT)                                     ...   -152.713549922
E(CCSD(T))                                 ...   -152.733094930
FINAL SINGLE POINT ENERGY      -152.733094930200

DIPOLE MOMENT
-------------
                                X             Y             Z
Electronic contribution:     -0.08264      -0.02683      -0.01572
Nuclear contribution   :     -0.70880       1.06197      -0.45099
                        -----------------------------------------
Total Dipole Moment    :     -0.79144       1.03514      -0.46671
                        -----------------------------------------
Magnitude (a.u.)       :      1.38409
Magnitude (Debye)      :      3.51808

Rotational constants in cm-1:     7.477337     0.244920     0.242271
Rotational constants in MHz : 224164.911798  7342.511634  7263.094987

                             ****ORCA TERMINATED NORMALLY****
TOTAL RUN TIME: 0 days 0 hours 4 minutes 30 seconds 953 msec
