                         Program Version 5.0  -  CURRENT   -
|  1> ! DLPNO-CCSD(T1) aug-cc-pVQZ DEFGRID3 RIJCOSX def2/J aug-cc-pV5Z/C verytightscf TightPNO LED
|  2>
|  3> %pal nprocs 16 end
|  4> %maxcore 6000
|  5> %scf maxiter 999 end
|  6> %basis auxj "autoaux" auxc "autoaux" autoauxlmax true end
|  7> %mdci TCutPNO 1e-7 printlevel 3 end
|  8>
|  9> * xyz 0 1
| 10> O(1)     1.597560181     2.978636709    -1.236245995
| 11> H(1)     1.417961949     3.808511891    -0.786488687
| 12> H(1)     0.711446199     2.593888593    -1.420550970
| 13> O(2)     0.012631031    -1.241255898     1.573836894
| 14> H(2)     0.908618001    -1.252949881     1.168524322
| 15> H(2)     0.168950409    -1.135399007     2.515952529
| 16> *
| 17>
| 18>                          ****END OF INPUT****

CARTESIAN COORDINATES (ANGSTROEM)
---------------------------------
  O      1.597560    2.978637   -1.236246
  H      1.417962    3.808512   -0.786489
  H      0.711446    2.593889   -1.420551
  O      0.012631   -1.241256    1.573837
  H      0.908618   -1.252950    1.168524
  H      0.168950   -1.135399    2.515953

 Total Charge           Charge          ....    0
 Multiplicity           Mult            ....    1
 Number of Electrons    NEL             ....   20
 Basis Dimension        Dim             ....  344

ORBITAL ENERGIES
----------------

  NO   OCC          E(Eh)            E(eV)
   0   2.0000     -20.566632      -559.6465
   1   2.0000     -20.566572      -559.6449
   2   2.0000      -1.344620       -36.5890
   3   2.0000      -1.344603       -36.5885
   4   2.0000      -0.710020       -19.3206
   5   2.0000      -0.709911       -19.3177
   6   2.0000      -0.581062       -15.8115
   7   2.0000      -0.581006       -15.8100
   8   2.0000      -0.509021       -13.8512
   9   2.0000      -0.508487       -13.8366
  10   0.0000       0.023834         0.6486
  11   0.0000       0.035964         0.9786
  12   0.0000       0.043637         1.1874
  13   0.0000       0.050974         1.3871
  14   0.0000       0.114020         3.1026

MULLIKEN ATOMIC CHARGES
-----------------------
   0 O :   -0.607722
   1 H :    0.296627
   2 H :    0.311101
   3 O :   -0.605185
   4 H :    0.309862
   5 H :    0.295317
Sum of atomic charges:   -0.0000000

LOEWDIN ATOMIC CHARGES
----------------------
   0 O :    1.568554
   1 H :   -0.808752
   2 H :   -0.759801
   3 O :    1.568655
   4 H :   -0.759856
   5 H :   -0.808800

  Mayer bond orders larger than 0.100000
B(  0-O ,  1-H ) :   0.9637 B(  0-O ,  2-H ) :   0.9484 B(  3-O ,  4-H ) :   0.9517
B(  3-O ,  5-H ) :   0.9674

E(0)                                       ...   -152.129335446
E(0)                                       ...   -152.129335446
E(CORR)(strong-pairs)                      ...     -0.578090767
E(CORR)(weak-pairs)                        ...     -0.000334989
E(CORR)(corrected)                         ...     -0.578425756
E(TOT)                                     ...   -152.707761202
E(CCSD(T))                                 ...   -152.726767687
FINAL SINGLE POINT ENERGY      -152.726767686618

DIPOLE MOMENT
-------------
                                X             Y             Z
Electronic contribution:      0.00218      -0.09104      -0.13479
Nuclear contribution   :     -0.01116       0.44888       0.66777
                        -----------------------------------------
Total Dipole Moment    :     -0.00898       0.35785       0.53298
                        -----------------------------------------
Magnitude (a.u.)       :      0.64203
Magnitude (Debye)      :      1.63191

Rotational constants in cm-1:     5.707515     0.066064     0.065976
Rotational constants in MHz : 171107.001024  1980.540192  1977.915567

                             ****ORCA TERMINATED NORMALLY****
TOTAL RUN TIME: 0 days 0 hours 2 minutes 49 seconds 276 msec
