                         Program Version 5.0  -  CURRENT   -
|  1> ! DLPNO-CCSD(T1) aug-cc-pVQZ DEFGRID3 RIJCOSX def2/J aug-cc-pV5Z/C verytightscf TightPNO LED
|  2>
|  3> %pal nprocs 16 end
|  4> %maxcore 6000
|  5> %scf maxiter 999 end
|  6> %basis auxj "autoaux" auxc "autoaux" autoauxlmax true end
|  7> %mdci TCutPNO 1e-7 printlevel 3 end
|  8>
|  9> * xyz 0 1
| 10> O(1)    -0.845377446     1.902266646    -1.724481185
| 11> H(1)    -1.198971324     1.335278306    -1.003913817
| 12> H(1)    -0.953209570     1.388839038    -2.529056860
| 13> O(2)     0.012631031    -1.241255898     1.573836894
| 14> H(2)     0.908618001    -1.252949881     1.168524322
| 15> H(2)     0.168950409    -1.135399007     2.515952529
| 16> *
| 17>
| 18>                          ****END OF INPUT****

CARTESIAN COORDINATES (ANGSTROEM)
---------------------------------
  O     -0.845377    1.902267   -1.724481
  H     -1.198971    1.335278   -1.003914
  H     -0.953210    1.388839   -2.529057
  O      0.012631   -1.241256    1.573837
  H      0.908618   -1.252950    1.168524
  H      0.168950   -1.135399    2.515953

 Total Charge           Charge          ....    0
 Multiplicity           Mult            ....    1
 Number of Electrons    NEL             ....   20
 Basis Dimension        Dim             ....  344

ORBITAL ENERGIES
----------------

  NO   OCC          E(Eh)            E(eV)
   0   2.0000     -20.572438      -559.8045
   1   2.0000     -20.560514      -559.4800
   2   2.0000      -1.350433       -36.7471
   3   2.0000      -1.338831       -36.4314
   4   2.0000      -0.715802       -19.4780
   5   2.0000      -0.705411       -19.1952
   6   2.0000      -0.587207       -15.9787
   7   2.0000      -0.574555       -15.6344
   8   2.0000      -0.514680       -14.0051
   9   2.0000      -0.502970       -13.6865
  10   0.0000       0.023045         0.6271
  11   0.0000       0.036059         0.9812
  12   0.0000       0.044409         1.2084
  13   0.0000       0.057788         1.5725
  14   0.0000       0.107637         2.9290

MULLIKEN ATOMIC CHARGES
-----------------------
   0 O :   -0.611835
   1 H :    0.314341
   2 H :    0.297078
   3 O :   -0.613364
   4 H :    0.314301
   5 H :    0.299479
Sum of atomic charges:    0.0000000

LOEWDIN ATOMIC CHARGES
----------------------
   0 O :    1.569625
   1 H :   -0.761735
   2 H :   -0.809531
   3 O :    1.569339
   4 H :   -0.759732
   5 H :   -0.807965

  Mayer bond orders larger than 0.100000
B(  0-O ,  1-H ) :   0.9473 B(  0-O ,  2-H ) :   0.9635 B(  3-O ,  4-H ) :   0.9473
B(  3-O ,  5-H ) :   0.9656

E(0)                                       ...   -152.130187780
E(0)                                       ...   -152.130187780
E(CORR)(strong-pairs)                      ...     -0.578008801
E(CORR)(weak-pairs)                        ...     -0.000380759
E(CORR)(corrected)                         ...     -0.578389560
E(TOT)                                     ...   -152.708577340
E(CCSD(T))                                 ...   -152.727574360
FINAL SINGLE POINT ENERGY      -152.727574359881

DIPOLE MOMENT
-------------
                                X             Y             Z
Electronic contribution:     -0.09811       0.15485      -0.05634
Nuclear contribution   :      0.49183      -0.82092       0.37689
                        -----------------------------------------
Total Dipole Moment    :      0.39371      -0.66607       0.32055
                        -----------------------------------------
Magnitude (a.u.)       :      0.83751
Magnitude (Debye)      :      2.12877

Rotational constants in cm-1:     6.721280     0.086241     0.085956
Rotational constants in MHz : 201498.893605  2585.428566  2576.898430

                             ****ORCA TERMINATED NORMALLY****
TOTAL RUN TIME: 0 days 0 hours 2 minutes 59 seconds 521 msec
