                         Program Version 5.0  -  CURRENT   -
|  1> ! DLPNO-CCSD(T1) aug-cc-pVQZ DEFGRID3 RIJCOSX def2/J aug-cc-pV5Z/C verytightscf TightPNO LED
|  2>
|  3> %pal nprocs 16 end
|  4> %maxcore 6000
|  5> %scf maxiter 999 end
|  6> %basis auxj "autoaux" auxc "autoaux" autoauxlmax true end
|  7> %mdci TCutPNO 1e-7 printlevel 3 end
|  8>
|  9> * xyz 0 1
| 10> O(1)     0.012631031    -1.241255898     1.573836894
| 11> H(1)     0.908618001    -1.252949881     1.168524322
| 12> H(1)     0.168950409    -1.135399007     2.515952529
| 13> O(2)     2.482542995    -1.248988714     0.449488905
| 14> H(2)     2.616828786    -1.798226083    -0.326968465
| 15> H(2)     2.828107886    -0.362220961     0.204648083
| 16> *
| 17>
| 18>                          ****END OF INPUT****

CARTESIAN COORDINATES (ANGSTROEM)
---------------------------------
  O      0.012631   -1.241256    1.573837
  H      0.908618   -1.252950    1.168524
  H      0.168950   -1.135399    2.515953
  O      2.482543   -1.248989    0.449489
  H      2.616829   -1.798226   -0.326968
  H      2.828108   -0.362221    0.204648

 Total Charge           Charge          ....    0
 Multiplicity           Mult            ....    1
 Number of Electrons    NEL             ....   20
 Basis Dimension        Dim             ....  344

ORBITAL ENERGIES
----------------

  NO   OCC          E(Eh)            E(eV)
   0   2.0000     -20.598459      -560.5126
   1   2.0000     -20.521903      -558.4294
   2   2.0000      -1.382682       -37.6247
   3   2.0000      -1.305611       -35.5275
   4   2.0000      -0.745459       -20.2850
   5   2.0000      -0.693056       -18.8590
   6   2.0000      -0.615805       -16.7569
   7   2.0000      -0.554183       -15.0801
   8   2.0000      -0.525126       -14.2894
   9   2.0000      -0.469419       -12.7735
  10   0.0000       0.017963         0.4888
  11   0.0000       0.039090         1.0637
  12   0.0000       0.045149         1.2286
  13   0.0000       0.068286         1.8582
  14   0.0000       0.102460         2.7881

MULLIKEN ATOMIC CHARGES
-----------------------
   0 O :   -0.621655
   1 H :    0.235993
   2 H :    0.297914
   3 O :   -0.532329
   4 H :    0.303790
   5 H :    0.316286
Sum of atomic charges:   -0.0000000

LOEWDIN ATOMIC CHARGES
----------------------
   0 O :    1.574609
   1 H :   -1.081361
   2 H :   -0.801078
   3 O :    1.676094
   4 H :   -0.707483
   5 H :   -0.660780

  Mayer bond orders larger than 0.100000
B(  0-O ,  1-H ) :   1.0013 B(  0-O ,  2-H ) :   0.9521 B(  3-O ,  4-H ) :   0.9462
B(  3-O ,  5-H ) :   0.9336

E(0)                                       ...   -152.132429751
E(0)                                       ...   -152.132429751
E(CORR)(strong-pairs)                      ...     -0.580666235
E(CORR)(weak-pairs)                        ...     -0.000448906
E(CORR)(corrected)                         ...     -0.581115142
E(TOT)                                     ...   -152.713544893
E(CCSD(T))                                 ...   -152.733087491
FINAL SINGLE POINT ENERGY      -152.733087491484

DIPOLE MOMENT
-------------
                                X             Y             Z
Electronic contribution:      0.00895      -0.07837      -0.08050
Nuclear contribution   :      1.27531       0.35932      -0.40327
                        -----------------------------------------
Total Dipole Moment    :      1.28426       0.28095      -0.48377
                        -----------------------------------------
Magnitude (a.u.)       :      1.40082
Magnitude (Debye)      :      3.56061

Rotational constants in cm-1:     7.421667     0.244777     0.241953
Rotational constants in MHz : 222495.969833  7338.218501  7253.580819

                             ****ORCA TERMINATED NORMALLY****
TOTAL RUN TIME: 0 days 0 hours 3 minutes 51 seconds 558 msec
