                         Program Version 5.0  -  CURRENT   -
|  1> ! DLPNO-CCSD(T1) aug-cc-pVQZ DEFGRID3 RIJCOSX def2/J aug-cc-pV5Z/C verytightscf TightPNO LED
|  2>
|  3> %pal nprocs 16 end
|  4> %maxcore 6000
|  5> %scf maxiter 999 end
|  6> %basis auxj "autoaux" auxc "autoaux" autoauxlmax true end
|  7> %mdci TCutPNO 1e-7 printlevel 3 end
|  8>
|  9> * xyz 0 1
| 10> O(1)    -0.845377446     1.902266646    -1.724481185
| 11> H(1)    -1.198971324     1.335278306    -1.003913817
| 12> H(1)    -0.953209570     1.388839038    -2.529056860
| 13> O(2)    -1.753042425     0.416462959     0.356105280
| 14> H(2)    -1.120933301    -0.183098298     0.812596940
| 15> H(2)    -2.593310567    -0.048459739     0.359102074
| 16> *
| 17>
| 18>                          ****END OF INPUT****

CARTESIAN COORDINATES (ANGSTROEM)
---------------------------------
  O     -0.845377    1.902267   -1.724481
  H     -1.198971    1.335278   -1.003914
  H     -0.953210    1.388839   -2.529057
  O     -1.753042    0.416463    0.356105
  H     -1.120933   -0.183098    0.812597
  H     -2.593311   -0.048460    0.359102

 Total Charge           Charge          ....    0
 Multiplicity           Mult            ....    1
 Number of Electrons    NEL             ....   20
 Basis Dimension        Dim             ....  344

ORBITAL ENERGIES
----------------

  NO   OCC          E(Eh)            E(eV)
   0   2.0000     -20.598475      -560.5130
   1   2.0000     -20.521748      -558.4252
   2   2.0000      -1.382056       -37.6076
   3   2.0000      -1.305412       -35.5221
   4   2.0000      -0.745150       -20.2766
   5   2.0000      -0.695467       -18.9246
   6   2.0000      -0.610018       -16.5994
   7   2.0000      -0.557717       -15.1763
   8   2.0000      -0.523341       -14.2408
   9   2.0000      -0.469079       -12.7643
  10   0.0000       0.016072         0.4373
  11   0.0000       0.038419         1.0454
  12   0.0000       0.043906         1.1947
  13   0.0000       0.066792         1.8175
  14   0.0000       0.105306         2.8655

MULLIKEN ATOMIC CHARGES
-----------------------
   0 O :   -0.608616
   1 H :    0.234783
   2 H :    0.288320
   3 O :   -0.541185
   4 H :    0.322824
   5 H :    0.303874
Sum of atomic charges:   -0.0000000

LOEWDIN ATOMIC CHARGES
----------------------
   0 O :    1.576203
   1 H :   -1.080473
   2 H :   -0.802383
   3 O :    1.676847
   4 H :   -0.659601
   5 H :   -0.710592

  Mayer bond orders larger than 0.100000
B(  0-O ,  1-H ) :   1.0041 B(  0-O ,  2-H ) :   0.9621 B(  3-O ,  4-H ) :   0.9333
B(  3-O ,  5-H ) :   0.9515

E(0)                                       ...   -152.131730475
E(0)                                       ...   -152.131730475
E(CORR)(strong-pairs)                      ...     -0.580692429
E(CORR)(weak-pairs)                        ...     -0.000451678
E(CORR)(corrected)                         ...     -0.581144107
E(TOT)                                     ...   -152.712874582
E(CCSD(T))                                 ...   -152.732421094
FINAL SINGLE POINT ENERGY      -152.732421094421

DIPOLE MOMENT
-------------
                                X             Y             Z
Electronic contribution:      0.01495       0.20989       0.19100
Nuclear contribution   :     -0.55734      -1.78533       0.31253
                        -----------------------------------------
Total Dipole Moment    :     -0.54239      -1.57544       0.50354
                        -----------------------------------------
Magnitude (a.u.)       :      1.74062
Magnitude (Debye)      :      4.42429

Rotational constants in cm-1:     7.800743     0.242733     0.240556
Rotational constants in MHz : 233860.405972  7276.953383  7211.700839

                             ****ORCA TERMINATED NORMALLY****
TOTAL RUN TIME: 0 days 0 hours 4 minutes 37 seconds 384 msec
