                         Program Version 5.0  -  CURRENT   -
|  1> ! DLPNO-CCSD(T1) aug-cc-pVQZ DEFGRID3 RIJCOSX def2/J aug-cc-pV5Z/C verytightscf TightPNO LED
|  2>
|  3> %pal nprocs 16 end
|  4> %maxcore 6000
|  5> %scf maxiter 999 end
|  6> %basis auxj "autoaux" auxc "autoaux" autoauxlmax true end
|  7> %mdci TCutPNO 1e-7 printlevel 3 end
|  8>
|  9> * xyz 0 1
| 10> O(1)     0.012631031    -1.241255898     1.573836894
| 11> H(1)     0.908618001    -1.252949881     1.168524322
| 12> H(1)     0.168950409    -1.135399007     2.515952529
| 13> O(2)    -1.753042425     0.416462959     0.356105280
| 14> H(2)    -1.120933301    -0.183098298     0.812596940
| 15> H(2)    -2.593310567    -0.048459739     0.359102074
| 16> *
| 17>
| 18>                          ****END OF INPUT****

CARTESIAN COORDINATES (ANGSTROEM)
---------------------------------
  O      0.012631   -1.241256    1.573837
  H      0.908618   -1.252950    1.168524
  H      0.168950   -1.135399    2.515953
  O     -1.753042    0.416463    0.356105
  H     -1.120933   -0.183098    0.812597
  H     -2.593311   -0.048460    0.359102

 Total Charge           Charge          ....    0
 Multiplicity           Mult            ....    1
 Number of Electrons    NEL             ....   20
 Basis Dimension        Dim             ....  344

ORBITAL ENERGIES
----------------

  NO   OCC          E(Eh)            E(eV)
   0   2.0000     -20.598880      -560.5240
   1   2.0000     -20.521346      -558.4142
   2   2.0000      -1.382742       -37.6263
   3   2.0000      -1.305164       -35.5153
   4   2.0000      -0.744330       -20.2542
   5   2.0000      -0.694000       -18.8847
   6   2.0000      -0.616520       -16.7764
   7   2.0000      -0.553608       -15.0644
   8   2.0000      -0.524659       -14.2767
   9   2.0000      -0.469133       -12.7658
  10   0.0000       0.018014         0.4902
  11   0.0000       0.039398         1.0721
  12   0.0000       0.044858         1.2206
  13   0.0000       0.068199         1.8558
  14   0.0000       0.102849         2.7987

MULLIKEN ATOMIC CHARGES
-----------------------
   0 O :   -0.539572
   1 H :    0.322328
   2 H :    0.304309
   3 O :   -0.616503
   4 H :    0.234150
   5 H :    0.295288
Sum of atomic charges:   -0.0000000

LOEWDIN ATOMIC CHARGES
----------------------
   0 O :    1.675939
   1 H :   -0.658531
   2 H :   -0.707872
   3 O :    1.574652
   4 H :   -1.082473
   5 H :   -0.801715

  Mayer bond orders larger than 0.100000
B(  0-O ,  1-H ) :   0.9296 B(  0-O ,  2-H ) :   0.9461 B(  3-O ,  4-H ) :   1.0040
B(  3-O ,  5-H ) :   0.9530

E(0)                                       ...   -152.132404695
E(0)                                       ...   -152.132404695
E(CORR)(strong-pairs)                      ...     -0.580694831
E(CORR)(weak-pairs)                        ...     -0.000449798
E(CORR)(corrected)                         ...     -0.581144629
E(TOT)                                     ...   -152.713549324
E(CCSD(T))                                 ...   -152.733095912
FINAL SINGLE POINT ENERGY      -152.733095911830

DIPOLE MOMENT
-------------
                                X             Y             Z
Electronic contribution:      0.08352      -0.00363      -0.02872
Nuclear contribution   :      0.70264      -0.80766       0.82927
                        -----------------------------------------
Total Dipole Moment    :      0.78616      -0.81129       0.80055
                        -----------------------------------------
Magnitude (a.u.)       :      1.38460
Magnitude (Debye)      :      3.51937

Rotational constants in cm-1:     7.477510     0.244931     0.242283
Rotational constants in MHz : 224170.110119  7342.834821  7263.454419

                             ****ORCA TERMINATED NORMALLY****
TOTAL RUN TIME: 0 days 0 hours 3 minutes 44 seconds 228 msec
