                         Program Version 5.0  -  CURRENT   -
|  1> ! DLPNO-CCSD(T1) aug-cc-pVTZ DEFGRID3 RIJCOSX def2/J aug-cc-pVQZ/C verytightscf TightPNO LED
|  2>
|  3> %pal nprocs 16 end
|  4> %maxcore 4000
|  5> %scf maxiter 999 end
|  6> %basis auxj "autoaux" auxc "autoaux" autoauxlmax true end
|  7> %mdci TCutPNO 1e-7 printlevel 3 end
|  8>
|  9> * xyz 0 1
| 10> O(1)     1.597560181     2.978636709    -1.236245995
| 11> H(1)     1.417961949     3.808511891    -0.786488687
| 12> H(1)     0.711446199     2.593888593    -1.420550970
| 13> O(2)     2.482542995    -1.248988714     0.449488905
| 14> H(2)     2.616828786    -1.798226083    -0.326968465
| 15> H(2)     2.828107886    -0.362220961     0.204648083
| 16> *
| 17>
| 18>                          ****END OF INPUT****

CARTESIAN COORDINATES (ANGSTROEM)
---------------------------------
  O      1.597560    2.978637   -1.236246
  H      1.417962    3.808512   -0.786489
  H      0.711446    2.593889   -1.420551
  O      2.482543   -1.248989    0.449489
  H      2.616829   -1.798226   -0.326968
  H      2.828108   -0.362221    0.204648

 Total Charge           Charge          ....    0
 Multiplicity           Mult            ....    1
 Number of Electrons    NEL             ....   20
 Basis Dimension        Dim             ....  184

ORBITAL ENERGIES
----------------

  NO   OCC          E(Eh)            E(eV)
   0   2.0000     -20.574840      -559.8699
   1   2.0000     -20.562892      -559.5447
   2   2.0000      -1.351244       -36.7692
   3   2.0000      -1.339500       -36.4497
   4   2.0000      -0.715778       -19.4773
   5   2.0000      -0.705435       -19.1959
   6   2.0000      -0.587140       -15.9769
   7   2.0000      -0.574500       -15.6329
   8   2.0000      -0.514618       -14.0035
   9   2.0000      -0.502788       -13.6816
  10   0.0000       0.025341         0.6896
  11   0.0000       0.039489         1.0745
  12   0.0000       0.048873         1.3299
  13   0.0000       0.063204         1.7199
  14   0.0000       0.130915         3.5624

MULLIKEN ATOMIC CHARGES
-----------------------
   0 O :   -0.464481
   1 H :    0.223151
   2 H :    0.241969
   3 O :   -0.474453
   4 H :    0.217054
   5 H :    0.256761
Sum of atomic charges:    0.0000000

LOEWDIN ATOMIC CHARGES
----------------------
   0 O :    0.999020
   1 H :   -0.522156
   2 H :   -0.475671
   3 O :    0.999593
   4 H :   -0.524010
   5 H :   -0.476775

  Mayer bond orders larger than 0.100000
B(  0-O ,  1-H ) :   0.9993 B(  0-O ,  2-H ) :   0.9817 B(  3-O ,  4-H ) :   1.0038
B(  3-O ,  5-H ) :   0.9620

E(0)                                       ...   -152.119560115
E(0)                                       ...   -152.119560115
E(CORR)(strong-pairs)                      ...     -0.547965098
E(CORR)(weak-pairs)                        ...     -0.000160062
E(CORR)(corrected)                         ...     -0.548125160
E(TOT)                                     ...   -152.667685275
E(CCSD(T))                                 ...   -152.685198539
FINAL SINGLE POINT ENERGY      -152.685198539209

DIPOLE MOMENT
-------------
                                X             Y             Z
Electronic contribution:      0.09714      -0.10877       0.12434
Nuclear contribution   :     -0.48765       0.65145      -0.62914
                        -----------------------------------------
Total Dipole Moment    :     -0.39050       0.54268      -0.50479
                        -----------------------------------------
Magnitude (a.u.)       :      0.83774
Magnitude (Debye)      :      2.12937

Rotational constants in cm-1:     6.721585     0.086237     0.085953
Rotational constants in MHz : 201508.043379  2585.328061  2576.799099

                             ****ORCA TERMINATED NORMALLY****
TOTAL RUN TIME: 0 days 0 hours 0 minutes 33 seconds 141 msec
