                         Program Version 5.0  -  CURRENT   -
|  1> ! DLPNO-CCSD(T1) aug-cc-pVTZ DEFGRID3 RIJCOSX def2/J aug-cc-pVQZ/C verytightscf TightPNO LED
|  2>
|  3> %pal nprocs 16 end
|  4> %maxcore 4000
|  5> %scf maxiter 999 end
|  6> %basis auxj "autoaux" auxc "autoaux" autoauxlmax true end
|  7> %mdci TCutPNO 1e-7 printlevel 3 end
|  8>
|  9> * xyz 0 1
| 10> O(1)     0.012631031    -1.241255898     1.573836894
| 11> H(1)     0.908618001    -1.252949881     1.168524322
| 12> H(1)     0.168950409    -1.135399007     2.515952529
| 13> O(2)     2.482542995    -1.248988714     0.449488905
| 14> H(2)     2.616828786    -1.798226083    -0.326968465
| 15> H(2)     2.828107886    -0.362220961     0.204648083
| 16> *
| 17>
| 18>                          ****END OF INPUT****

CARTESIAN COORDINATES (ANGSTROEM)
---------------------------------
  O      0.012631   -1.241256    1.573837
  H      0.908618   -1.252950    1.168524
  H      0.168950   -1.135399    2.515953
  O      2.482543   -1.248989    0.449489
  H      2.616829   -1.798226   -0.326968
  H      2.828108   -0.362221    0.204648

 Total Charge           Charge          ....    0
 Multiplicity           Mult            ....    1
 Number of Electrons    NEL             ....   20
 Basis Dimension        Dim             ....  184

ORBITAL ENERGIES
----------------

  NO   OCC          E(Eh)            E(eV)
   0   2.0000     -20.600900      -560.5790
   1   2.0000     -20.524358      -558.4962
   2   2.0000      -1.383300       -37.6415
   3   2.0000      -1.306283       -35.5458
   4   2.0000      -0.745501       -20.2861
   5   2.0000      -0.693059       -18.8591
   6   2.0000      -0.615751       -16.7554
   7   2.0000      -0.554036       -15.0761
   8   2.0000      -0.524983       -14.2855
   9   2.0000      -0.469314       -12.7707
  10   0.0000       0.020301         0.5524
  11   0.0000       0.043245         1.1768
  12   0.0000       0.049697         1.3523
  13   0.0000       0.075308         2.0492
  14   0.0000       0.124155         3.3784

MULLIKEN ATOMIC CHARGES
-----------------------
   0 O :   -0.524244
   1 H :    0.293830
   2 H :    0.191498
   3 O :   -0.412572
   4 H :    0.209564
   5 H :    0.241924
Sum of atomic charges:   -0.0000000

LOEWDIN ATOMIC CHARGES
----------------------
   0 O :    1.021459
   1 H :   -0.738026
   2 H :   -0.517603
   3 O :    1.095120
   4 H :   -0.453016
   5 H :   -0.407933

  Mayer bond orders larger than 0.100000
B(  0-O ,  1-H ) :   0.9203 B(  0-O ,  2-H ) :   1.0345 B(  3-O ,  4-H ) :   1.0132
B(  3-O ,  5-H ) :   0.9875

E(0)                                       ...   -152.121826897
E(0)                                       ...   -152.121826897
E(CORR)(strong-pairs)                      ...     -0.550724881
E(CORR)(weak-pairs)                        ...     -0.000171004
E(CORR)(corrected)                         ...     -0.550895884
E(TOT)                                     ...   -152.672722781
E(CCSD(T))                                 ...   -152.690781989
FINAL SINGLE POINT ENERGY      -152.690781989426

DIPOLE MOMENT
-------------
                                X             Y             Z
Electronic contribution:      0.00992      -0.07807      -0.08070
Nuclear contribution   :      1.27531       0.35932      -0.40327
                        -----------------------------------------
Total Dipole Moment    :      1.28523       0.28126      -0.48398
                        -----------------------------------------
Magnitude (a.u.)       :      1.40184
Magnitude (Debye)      :      3.56319

Rotational constants in cm-1:     7.421667     0.244777     0.241953
Rotational constants in MHz : 222495.969833  7338.218501  7253.580819

                             ****ORCA TERMINATED NORMALLY****
TOTAL RUN TIME: 0 days 0 hours 0 minutes 50 seconds 782 msec
