                         Program Version 5.0  -  CURRENT   -
|  1> ! DLPNO-CCSD(T1) aug-cc-pVTZ DEFGRID3 RIJCOSX def2/J aug-cc-pVQZ/C verytightscf TightPNO LED
|  2>
|  3> %pal nprocs 16 end
|  4> %maxcore 4000
|  5> %scf maxiter 999 end
|  6> %basis auxj "autoaux" auxc "autoaux" autoauxlmax true end
|  7> %mdci TCutPNO 1e-7 printlevel 3 end
|  8>
|  9> * xyz 0 1
| 10> O(1)     1.597560181     2.978636709    -1.236245995
| 11> H(1)     1.417961949     3.808511891    -0.786488687
| 12> H(1)     0.711446199     2.593888593    -1.420550970
| 13> O(2)     3.364853284     1.252522284    -0.119963272
| 14> H(2)     2.731853532     1.891821037    -0.517486897
| 15> H(2)     4.212012919     1.443946099    -0.529713339
| 16> *
| 17>
| 18>                          ****END OF INPUT****

CARTESIAN COORDINATES (ANGSTROEM)
---------------------------------
  O      1.597560    2.978637   -1.236246
  H      1.417962    3.808512   -0.786489
  H      0.711446    2.593889   -1.420551
  O      3.364853    1.252522   -0.119963
  H      2.731854    1.891821   -0.517487
  H      4.212013    1.443946   -0.529713

 Total Charge           Charge          ....    0
 Multiplicity           Mult            ....    1
 Number of Electrons    NEL             ....   20
 Basis Dimension        Dim             ....  184

ORBITAL ENERGIES
----------------

  NO   OCC          E(Eh)            E(eV)
   0   2.0000     -20.601149      -560.5858
   1   2.0000     -20.523877      -558.4831
   2   2.0000      -1.383466       -37.6460
   3   2.0000      -1.305946       -35.5366
   4   2.0000      -0.744232       -20.2516
   5   2.0000      -0.694004       -18.8848
   6   2.0000      -0.616388       -16.7728
   7   2.0000      -0.553513       -15.0618
   8   2.0000      -0.524611       -14.2754
   9   2.0000      -0.469083       -12.7644
  10   0.0000       0.020365         0.5542
  11   0.0000       0.043587         1.1861
  12   0.0000       0.049390         1.3440
  13   0.0000       0.075243         2.0475
  14   0.0000       0.124469         3.3870

MULLIKEN ATOMIC CHARGES
-----------------------
   0 O :   -0.400415
   1 H :    0.211266
   2 H :    0.229381
   3 O :   -0.520529
   4 H :    0.288086
   5 H :    0.192211
Sum of atomic charges:   -0.0000000

LOEWDIN ATOMIC CHARGES
----------------------
   0 O :    1.095105
   1 H :   -0.453969
   2 H :   -0.405705
   3 O :    1.021629
   4 H :   -0.738850
   5 H :   -0.518211

  Mayer bond orders larger than 0.100000
B(  0-O ,  1-H ) :   1.0152 B(  0-O ,  2-H ) :   1.0021 B(  3-O ,  4-H ) :   0.9290
B(  3-O ,  5-H ) :   1.0337

E(0)                                       ...   -152.121805204
E(0)                                       ...   -152.121805204
E(CORR)(strong-pairs)                      ...     -0.550755146
E(CORR)(weak-pairs)                        ...     -0.000171690
E(CORR)(corrected)                         ...     -0.550926836
E(TOT)                                     ...   -152.672732040
E(CCSD(T))                                 ...   -152.690794047
FINAL SINGLE POINT ENERGY      -152.690794047105

DIPOLE MOMENT
-------------
                                X             Y             Z
Electronic contribution:     -0.08262      -0.02637      -0.01646
Nuclear contribution   :     -0.70880       1.06197      -0.45099
                        -----------------------------------------
Total Dipole Moment    :     -0.79142       1.03559      -0.46745
                        -----------------------------------------
Magnitude (a.u.)       :      1.38467
Magnitude (Debye)      :      3.51954

Rotational constants in cm-1:     7.477337     0.244920     0.242271
Rotational constants in MHz : 224164.911798  7342.511634  7263.094987

                             ****ORCA TERMINATED NORMALLY****
TOTAL RUN TIME: 0 days 0 hours 1 minutes 14 seconds 385 msec
