                         Program Version 5.0  -  CURRENT   -
|  1> ! DLPNO-CCSD(T1) aug-cc-pVTZ DEFGRID3 RIJCOSX def2/J aug-cc-pVQZ/C verytightscf TightPNO LED
|  2>
|  3> %pal nprocs 16 end
|  4> %maxcore 4000
|  5> %scf maxiter 999 end
|  6> %basis auxj "autoaux" auxc "autoaux" autoauxlmax true end
|  7> %mdci TCutPNO 1e-7 printlevel 3 end
|  8>
|  9> * xyz 0 1
| 10> O(1)     3.364853284     1.252522284    -0.119963272
| 11> H(1)     2.731853532     1.891821037    -0.517486897
| 12> H(1)     4.212012919     1.443946099    -0.529713339
| 13> O(2)     0.012631031    -1.241255898     1.573836894
| 14> H(2)     0.908618001    -1.252949881     1.168524322
| 15> H(2)     0.168950409    -1.135399007     2.515952529
| 16> *
| 17>
| 18>                          ****END OF INPUT****

CARTESIAN COORDINATES (ANGSTROEM)
---------------------------------
  O      3.364853    1.252522   -0.119963
  H      2.731854    1.891821   -0.517487
  H      4.212013    1.443946   -0.529713
  O      0.012631   -1.241256    1.573837
  H      0.908618   -1.252950    1.168524
  H      0.168950   -1.135399    2.515953

 Total Charge           Charge          ....    0
 Multiplicity           Mult            ....    1
 Number of Electrons    NEL             ....   20
 Basis Dimension        Dim             ....  184

ORBITAL ENERGIES
----------------

  NO   OCC          E(Eh)            E(eV)
   0   2.0000     -20.574978      -559.8736
   1   2.0000     -20.560616      -559.4828
   2   2.0000      -1.351331       -36.7716
   3   2.0000      -1.336940       -36.3800
   4   2.0000      -0.717133       -19.5142
   5   2.0000      -0.701589       -19.0912
   6   2.0000      -0.586789       -15.9673
   7   2.0000      -0.572765       -15.5857
   8   2.0000      -0.514818       -14.0089
   9   2.0000      -0.500352       -13.6153
  10   0.0000       0.025546         0.6952
  11   0.0000       0.041551         1.1307
  12   0.0000       0.048603         1.3225
  13   0.0000       0.060558         1.6479
  14   0.0000       0.137168         3.7325

MULLIKEN ATOMIC CHARGES
-----------------------
   0 O :   -0.469879
   1 H :    0.247407
   2 H :    0.222723
   3 O :   -0.477761
   4 H :    0.255141
   5 H :    0.222369
Sum of atomic charges:   -0.0000000

LOEWDIN ATOMIC CHARGES
----------------------
   0 O :    0.998726
   1 H :   -0.474128
   2 H :   -0.523179
   3 O :    0.998370
   4 H :   -0.476054
   5 H :   -0.523736

  Mayer bond orders larger than 0.100000
B(  0-O ,  1-H ) :   0.9769 B(  0-O ,  2-H ) :   1.0001 B(  3-O ,  4-H ) :   0.9669
B(  3-O ,  5-H ) :   0.9962

E(0)                                       ...   -152.119686658
E(0)                                       ...   -152.119686658
E(CORR)(strong-pairs)                      ...     -0.547985231
E(CORR)(weak-pairs)                        ...     -0.000153604
E(CORR)(corrected)                         ...     -0.548138835
E(TOT)                                     ...   -152.667825492
E(CCSD(T))                                 ...   -152.685340473
FINAL SINGLE POINT ENERGY      -152.685340472643

DIPOLE MOMENT
-------------
                                X             Y             Z
Electronic contribution:     -0.19472      -0.14026       0.03479
Nuclear contribution   :      1.05416       0.76984      -0.22513
                        -----------------------------------------
Total Dipole Moment    :      0.85944       0.62958      -0.19034
                        -----------------------------------------
Magnitude (a.u.)       :      1.08224
Magnitude (Debye)      :      2.75083

Rotational constants in cm-1:     7.552078     0.090273     0.090007
Rotational constants in MHz : 226405.611711  2706.314357  2698.335113

                             ****ORCA TERMINATED NORMALLY****
TOTAL RUN TIME: 0 days 0 hours 0 minutes 34 seconds 889 msec
