                         Program Version 5.0  -  CURRENT   -
|  1> ! DLPNO-CCSD(T1) aug-cc-pVTZ DEFGRID3 RIJCOSX def2/J aug-cc-pVQZ/C verytightscf TightPNO LED
|  2>
|  3> %pal nprocs 16 end
|  4> %maxcore 4000
|  5> %scf maxiter 999 end
|  6> %basis auxj "autoaux" auxc "autoaux" autoauxlmax true end
|  7> %mdci TCutPNO 1e-7 printlevel 3 end
|  8>
|  9> * xyz 0 1
| 10> O(1)     1.597560181     2.978636709    -1.236245995
| 11> H(1)     1.417961949     3.808511891    -0.786488687
| 12> H(1)     0.711446199     2.593888593    -1.420550970
| 13> O(2)    -0.845377446     1.902266646    -1.724481185
| 14> H(2)    -1.198971324     1.335278306    -1.003913817
| 15> H(2)    -0.953209570     1.388839038    -2.529056860
| 16> *
| 17>
| 18>                          ****END OF INPUT****

CARTESIAN COORDINATES (ANGSTROEM)
---------------------------------
  O      1.597560    2.978637   -1.236246
  H      1.417962    3.808512   -0.786489
  H      0.711446    2.593889   -1.420551
  O     -0.845377    1.902267   -1.724481
  H     -1.198971    1.335278   -1.003914
  H     -0.953210    1.388839   -2.529057

 Total Charge           Charge          ....    0
 Multiplicity           Mult            ....    1
 Number of Electrons    NEL             ....   20
 Basis Dimension        Dim             ....  184

ORBITAL ENERGIES
----------------

  NO   OCC          E(Eh)            E(eV)
   0   2.0000     -20.601014      -560.5821
   1   2.0000     -20.524288      -558.4943
   2   2.0000      -1.383390       -37.6440
   3   2.0000      -1.306404       -35.5491
   4   2.0000      -0.745464       -20.2851
   5   2.0000      -0.693045       -18.8587
   6   2.0000      -0.615750       -16.7554
   7   2.0000      -0.554097       -15.0777
   8   2.0000      -0.525015       -14.2864
   9   2.0000      -0.469359       -12.7719
  10   0.0000       0.020291         0.5521
  11   0.0000       0.043246         1.1768
  12   0.0000       0.049705         1.3525
  13   0.0000       0.075310         2.0493
  14   0.0000       0.124155         3.3784

MULLIKEN ATOMIC CHARGES
-----------------------
   0 O :   -0.519321
   1 H :    0.194001
   2 H :    0.286762
   3 O :   -0.404530
   4 H :    0.231383
   5 H :    0.211705
Sum of atomic charges:   -0.0000000

LOEWDIN ATOMIC CHARGES
----------------------
   0 O :    1.021528
   1 H :   -0.517504
   2 H :   -0.738030
   3 O :    1.095116
   4 H :   -0.408109
   5 H :   -0.453000

  Mayer bond orders larger than 0.100000
B(  0-O ,  1-H ) :   1.0299 B(  0-O ,  2-H ) :   0.9312 B(  3-O ,  4-H ) :   1.0020
B(  3-O ,  5-H ) :   1.0102

E(0)                                       ...   -152.121826926
E(0)                                       ...   -152.121826926
E(CORR)(strong-pairs)                      ...     -0.550725827
E(CORR)(weak-pairs)                        ...     -0.000170723
E(CORR)(corrected)                         ...     -0.550896550
E(TOT)                                     ...   -152.672723476
E(CCSD(T))                                 ...   -152.690782131
FINAL SINGLE POINT ENERGY      -152.690782130975

DIPOLE MOMENT
-------------
                                X             Y             Z
Electronic contribution:     -0.00656      -0.04537      -0.10290
Nuclear contribution   :     -1.27113      -0.52879       0.15103
                        -----------------------------------------
Total Dipole Moment    :     -1.27769      -0.57416       0.04812
                        -----------------------------------------
Magnitude (a.u.)       :      1.40159
Magnitude (Debye)      :      3.56256

Rotational constants in cm-1:     7.421955     0.244768     0.241946
Rotational constants in MHz : 222504.624744  7337.964978  7253.351726

                             ****ORCA TERMINATED NORMALLY****
TOTAL RUN TIME: 0 days 0 hours 0 minutes 52 seconds 481 msec
