                         Program Version 5.0  -  CURRENT   -
|  1> ! DLPNO-CCSD(T1) aug-cc-pVTZ DEFGRID3 RIJCOSX def2/J aug-cc-pVQZ/C verytightscf TightPNO LED
|  2>
|  3> %pal nprocs 16 end
|  4> %maxcore 4000
|  5> %scf maxiter 999 end
|  6> %basis auxj "autoaux" auxc "autoaux" autoauxlmax true end
|  7> %mdci TCutPNO 1e-7 printlevel 3 end
|  8>
|  9> * xyz 0 1
| 10> O(1)     1.597560181     2.978636709    -1.236245995
| 11> H(1)     1.417961949     3.808511891    -0.786488687
| 12> H(1)     0.711446199     2.593888593    -1.420550970
| 13> O(2)    -1.753042425     0.416462959     0.356105280
| 14> H(2)    -1.120933301    -0.183098298     0.812596940
| 15> H(2)    -2.593310567    -0.048459739     0.359102074
| 16> *
| 17>
| 18>                          ****END OF INPUT****

CARTESIAN COORDINATES (ANGSTROEM)
---------------------------------
  O      1.597560    2.978637   -1.236246
  H      1.417962    3.808512   -0.786489
  H      0.711446    2.593889   -1.420551
  O     -1.753042    0.416463    0.356105
  H     -1.120933   -0.183098    0.812597
  H     -2.593311   -0.048460    0.359102

 Total Charge           Charge          ....    0
 Multiplicity           Mult            ....    1
 Number of Electrons    NEL             ....   20
 Basis Dimension        Dim             ....  184

ORBITAL ENERGIES
----------------

  NO   OCC          E(Eh)            E(eV)
   0   2.0000     -20.574950      -559.8729
   1   2.0000     -20.560551      -559.4810
   2   2.0000      -1.351255       -36.7695
   3   2.0000      -1.337021       -36.3822
   4   2.0000      -0.717141       -19.5144
   5   2.0000      -0.701562       -19.0905
   6   2.0000      -0.586804       -15.9678
   7   2.0000      -0.572721       -15.5845
   8   2.0000      -0.514736       -14.0067
   9   2.0000      -0.500374       -13.6159
  10   0.0000       0.025539         0.6949
  11   0.0000       0.041554         1.1307
  12   0.0000       0.048604         1.3226
  13   0.0000       0.060557         1.6478
  14   0.0000       0.137171         3.7326

MULLIKEN ATOMIC CHARGES
-----------------------
   0 O :   -0.473554
   1 H :    0.219366
   2 H :    0.253927
   3 O :   -0.468837
   4 H :    0.245134
   5 H :    0.223964
Sum of atomic charges:   -0.0000000

LOEWDIN ATOMIC CHARGES
----------------------
   0 O :    0.998460
   1 H :   -0.523728
   2 H :   -0.476148
   3 O :    0.998681
   4 H :   -0.474146
   5 H :   -0.523120

  Mayer bond orders larger than 0.100000
B(  0-O ,  1-H ) :   0.9995 B(  0-O ,  2-H ) :   0.9681 B(  3-O ,  4-H ) :   0.9795
B(  3-O ,  5-H ) :   0.9983

E(0)                                       ...   -152.119685278
E(0)                                       ...   -152.119685278
E(CORR)(strong-pairs)                      ...     -0.547983663
E(CORR)(weak-pairs)                        ...     -0.000153570
E(CORR)(corrected)                         ...     -0.548137234
E(TOT)                                     ...   -152.667822512
E(CCSD(T))                                 ...   -152.685337371
FINAL SINGLE POINT ENERGY      -152.685337370560

DIPOLE MOMENT
-------------
                                X             Y             Z
Electronic contribution:      0.19604       0.08782      -0.11206
Nuclear contribution   :     -1.06032      -0.51553       0.60341
                        -----------------------------------------
Total Dipole Moment    :     -0.86428      -0.42770       0.49135
                        -----------------------------------------
Magnitude (a.u.)       :      1.08228
Magnitude (Debye)      :      2.75094

Rotational constants in cm-1:     7.552581     0.090266     0.090000
Rotational constants in MHz : 226420.693437  2706.111468  2698.132743

                             ****ORCA TERMINATED NORMALLY****
TOTAL RUN TIME: 0 days 0 hours 0 minutes 42 seconds 358 msec
