                         Program Version 5.0  -  CURRENT   -
|  1> ! DLPNO-CCSD(T1) aug-cc-pVTZ DEFGRID3 RIJCOSX def2/J aug-cc-pVQZ/C verytightscf TightPNO LED
|  2>
|  3> %pal nprocs 16 end
|  4> %maxcore 4000
|  5> %scf maxiter 999 end
|  6> %basis auxj "autoaux" auxc "autoaux" autoauxlmax true end
|  7> %mdci TCutPNO 1e-7 printlevel 3 end
|  8>
|  9> * xyz 0 1
| 10> O(1)     3.364853284     1.252522284    -0.119963272
| 11> H(1)     2.731853532     1.891821037    -0.517486897
| 12> H(1)     4.212012919     1.443946099    -0.529713339
| 13> O(2)    -1.753042425     0.416462959     0.356105280
| 14> H(2)    -1.120933301    -0.183098298     0.812596940
| 15> H(2)    -2.593310567    -0.048459739     0.359102074
| 16> *
| 17>
| 18>                          ****END OF INPUT****

CARTESIAN COORDINATES (ANGSTROEM)
---------------------------------
  O      3.364853    1.252522   -0.119963
  H      2.731854    1.891821   -0.517487
  H      4.212013    1.443946   -0.529713
  O     -1.753042    0.416463    0.356105
  H     -1.120933   -0.183098    0.812597
  H     -2.593311   -0.048460    0.359102

 Total Charge           Charge          ....    0
 Multiplicity           Mult            ....    1
 Number of Electrons    NEL             ....   20
 Basis Dimension        Dim             ....  184

ORBITAL ENERGIES
----------------

  NO   OCC          E(Eh)            E(eV)
   0   2.0000     -20.567242      -559.6631
   1   2.0000     -20.567209      -559.6622
   2   2.0000      -1.343571       -36.5604
   3   2.0000      -1.343489       -36.5582
   4   2.0000      -0.709495       -19.3063
   5   2.0000      -0.709298       -19.3010
   6   2.0000      -0.578542       -15.7429
   7   2.0000      -0.578520       -15.7423
   8   2.0000      -0.506978       -13.7956
   9   2.0000      -0.506827       -13.7915
  10   0.0000       0.028454         0.7743
  11   0.0000       0.036645         0.9972
  12   0.0000       0.056231         1.5301
  13   0.0000       0.057414         1.5623
  14   0.0000       0.141087         3.8392

MULLIKEN ATOMIC CHARGES
-----------------------
   0 O :   -0.466447
   1 H :    0.244449
   2 H :    0.222006
   3 O :   -0.467016
   4 H :    0.242946
   5 H :    0.224062
Sum of atomic charges:   -0.0000000

LOEWDIN ATOMIC CHARGES
----------------------
   0 O :    0.998707
   1 H :   -0.474500
   2 H :   -0.524207
   3 O :    0.998642
   4 H :   -0.474514
   5 H :   -0.524128

  Mayer bond orders larger than 0.100000
B(  0-O ,  1-H ) :   0.9788 B(  0-O ,  2-H ) :   0.9994 B(  3-O ,  4-H ) :   0.9803
B(  3-O ,  5-H ) :   0.9966

E(0)                                       ...   -152.118782444
E(0)                                       ...   -152.118782444
E(CORR)(strong-pairs)                      ...     -0.547958027
E(CORR)(weak-pairs)                        ...     -0.000116293
E(CORR)(corrected)                         ...     -0.548074320
E(TOT)                                     ...   -152.666856764
E(CCSD(T))                                 ...   -152.684367134
FINAL SINGLE POINT ENERGY      -152.684367133607

DIPOLE MOMENT
-------------
                                X             Y             Z
Electronic contribution:     -0.00099       0.03933       0.05862
Nuclear contribution   :      0.00499      -0.19457      -0.28948
                        -----------------------------------------
Total Dipole Moment    :      0.00400      -0.15524      -0.23086
                        -----------------------------------------
Magnitude (a.u.)       :      0.27823
Magnitude (Debye)      :      0.70721

Rotational constants in cm-1:    10.618405     0.067165     0.066805
Rotational constants in MHz : 318331.773573  2013.550394  2002.776621

                             ****ORCA TERMINATED NORMALLY****
TOTAL RUN TIME: 0 days 0 hours 0 minutes 37 seconds 36 msec
