                         Program Version 5.0  -  CURRENT   -
|  1> ! DLPNO-CCSD(T1) aug-cc-pVTZ DEFGRID3 RIJCOSX def2/J aug-cc-pVQZ/C verytightscf TightPNO LED
|  2>
|  3> %pal nprocs 16 end
|  4> %maxcore 4000
|  5> %scf maxiter 999 end
|  6> %basis auxj "autoaux" auxc "autoaux" autoauxlmax true end
|  7> %mdci TCutPNO 1e-7 printlevel 3 end
|  8>
|  9> * xyz 0 1
| 10> O(1)    -0.845377446     1.902266646    -1.724481185
| 11> H(1)    -1.198971324     1.335278306    -1.003913817
| 12> H(1)    -0.953209570     1.388839038    -2.529056860
| 13> O(2)     0.012631031    -1.241255898     1.573836894
| 14> H(2)     0.908618001    -1.252949881     1.168524322
| 15> H(2)     0.168950409    -1.135399007     2.515952529
| 16> *
| 17>
| 18>                          ****END OF INPUT****

CARTESIAN COORDINATES (ANGSTROEM)
---------------------------------
  O     -0.845377    1.902267   -1.724481
  H     -1.198971    1.335278   -1.003914
  H     -0.953210    1.388839   -2.529057
  O      0.012631   -1.241256    1.573837
  H      0.908618   -1.252950    1.168524
  H      0.168950   -1.135399    2.515953

 Total Charge           Charge          ....    0
 Multiplicity           Mult            ....    1
 Number of Electrons    NEL             ....   20
 Basis Dimension        Dim             ....  184

ORBITAL ENERGIES
----------------

  NO   OCC          E(Eh)            E(eV)
   0   2.0000     -20.574927      -559.8722
   1   2.0000     -20.563028      -559.5484
   2   2.0000      -1.351172       -36.7673
   3   2.0000      -1.339606       -36.4525
   4   2.0000      -0.715813       -19.4783
   5   2.0000      -0.705398       -19.1949
   6   2.0000      -0.587195       -15.9784
   7   2.0000      -0.574521       -15.6335
   8   2.0000      -0.514607       -14.0032
   9   2.0000      -0.502917       -13.6851
  10   0.0000       0.025332         0.6893
  11   0.0000       0.039486         1.0745
  12   0.0000       0.048876         1.3300
  13   0.0000       0.063211         1.7201
  14   0.0000       0.130916         3.5624

MULLIKEN ATOMIC CHARGES
-----------------------
   0 O :   -0.472523
   1 H :    0.249594
   2 H :    0.222311
   3 O :   -0.469066
   4 H :    0.244022
   5 H :    0.225662
Sum of atomic charges:   -0.0000000

LOEWDIN ATOMIC CHARGES
----------------------
   0 O :    0.999671
   1 H :   -0.476941
   2 H :   -0.523923
   3 O :    0.998960
   4 H :   -0.475596
   5 H :   -0.522170

  Mayer bond orders larger than 0.100000
B(  0-O ,  1-H ) :   0.9732 B(  0-O ,  2-H ) :   0.9964 B(  3-O ,  4-H ) :   0.9795
B(  3-O ,  5-H ) :   0.9967

E(0)                                       ...   -152.119562692
E(0)                                       ...   -152.119562692
E(CORR)(strong-pairs)                      ...     -0.547968679
E(CORR)(weak-pairs)                        ...     -0.000159830
E(CORR)(corrected)                         ...     -0.548128510
E(TOT)                                     ...   -152.667691202
E(CCSD(T))                                 ...   -152.685203283
FINAL SINGLE POINT ENERGY      -152.685203282842

DIPOLE MOMENT
-------------
                                X             Y             Z
Electronic contribution:     -0.09788       0.15429      -0.05595
Nuclear contribution   :      0.49183      -0.82092       0.37689
                        -----------------------------------------
Total Dipole Moment    :      0.39395      -0.66663       0.32094
                        -----------------------------------------
Magnitude (a.u.)       :      0.83821
Magnitude (Debye)      :      2.13056

Rotational constants in cm-1:     6.721280     0.086241     0.085956
Rotational constants in MHz : 201498.893605  2585.428566  2576.898430

                             ****ORCA TERMINATED NORMALLY****
TOTAL RUN TIME: 0 days 0 hours 0 minutes 33 seconds 376 msec
