                         Program Version 5.0  -  CURRENT   -
|  1> ! DLPNO-CCSD(T1) aug-cc-pVTZ DEFGRID3 RIJCOSX def2/J aug-cc-pVQZ/C verytightscf TightPNO LED
|  2>
|  3> %pal nprocs 16 end
|  4> %maxcore 4000
|  5> %scf maxiter 999 end
|  6> %basis auxj "autoaux" auxc "autoaux" autoauxlmax true end
|  7> %mdci TCutPNO 1e-7 printlevel 3 end
|  8>
|  9> * xyz 0 1
| 10> O(1)     0.012631031    -1.241255898     1.573836894
| 11> H(1)     0.908618001    -1.252949881     1.168524322
| 12> H(1)     0.168950409    -1.135399007     2.515952529
| 13> O(2)    -1.753042425     0.416462959     0.356105280
| 14> H(2)    -1.120933301    -0.183098298     0.812596940
| 15> H(2)    -2.593310567    -0.048459739     0.359102074
| 16> *
| 17>
| 18>                          ****END OF INPUT****

CARTESIAN COORDINATES (ANGSTROEM)
---------------------------------
  O      0.012631   -1.241256    1.573837
  H      0.908618   -1.252950    1.168524
  H      0.168950   -1.135399    2.515953
  O     -1.753042    0.416463    0.356105
  H     -1.120933   -0.183098    0.812597
  H     -2.593311   -0.048460    0.359102

 Total Charge           Charge          ....    0
 Multiplicity           Mult            ....    1
 Number of Electrons    NEL             ....   20
 Basis Dimension        Dim             ....  184

ORBITAL ENERGIES
----------------

  NO   OCC          E(Eh)            E(eV)
   0   2.0000     -20.601314      -560.5903
   1   2.0000     -20.523819      -558.4815
   2   2.0000      -1.383439       -37.6453
   3   2.0000      -1.305840       -35.5337
   4   2.0000      -0.744302       -20.2535
   5   2.0000      -0.694021       -18.8853
   6   2.0000      -0.616480       -16.7753
   7   2.0000      -0.553549       -15.0628
   8   2.0000      -0.524594       -14.2749
   9   2.0000      -0.468984       -12.7617
  10   0.0000       0.020363         0.5541
  11   0.0000       0.043587         1.1860
  12   0.0000       0.049394         1.3441
  13   0.0000       0.075246         2.0475
  14   0.0000       0.124465         3.3869

MULLIKEN ATOMIC CHARGES
-----------------------
   0 O :   -0.413394
   1 H :    0.236378
   2 H :    0.216882
   3 O :   -0.520119
   4 H :    0.286973
   5 H :    0.193279
Sum of atomic charges:   -0.0000000

LOEWDIN ATOMIC CHARGES
----------------------
   0 O :    1.095108
   1 H :   -0.405631
   2 H :   -0.453827
   3 O :    1.021555
   4 H :   -0.739041
   5 H :   -0.518164

  Mayer bond orders larger than 0.100000
B(  0-O ,  1-H ) :   0.9917 B(  0-O ,  2-H ) :   1.0080 B(  3-O ,  4-H ) :   0.9314
B(  3-O ,  5-H ) :   1.0299

E(0)                                       ...   -152.121806463
E(0)                                       ...   -152.121806463
E(CORR)(strong-pairs)                      ...     -0.550754945
E(CORR)(weak-pairs)                        ...     -0.000171811
E(CORR)(corrected)                         ...     -0.550926756
E(TOT)                                     ...   -152.672733218
E(CCSD(T))                                 ...   -152.690795843
FINAL SINGLE POINT ENERGY      -152.690795842751

DIPOLE MOMENT
-------------
                                X             Y             Z
Electronic contribution:      0.08361      -0.00446      -0.02813
Nuclear contribution   :      0.70264      -0.80766       0.82927
                        -----------------------------------------
Total Dipole Moment    :      0.78624      -0.81212       0.80114
                        -----------------------------------------
Magnitude (a.u.)       :      1.38548
Magnitude (Debye)      :      3.52160

Rotational constants in cm-1:     7.477510     0.244931     0.242283
Rotational constants in MHz : 224170.110119  7342.834821  7263.454419

                             ****ORCA TERMINATED NORMALLY****
TOTAL RUN TIME: 0 days 0 hours 0 minutes 52 seconds 504 msec
