                         Program Version 5.0  -  CURRENT   -
|  1> ! DLPNO-CCSD(T1) aug-cc-pVTZ DEFGRID3 RIJCOSX def2/J aug-cc-pVQZ/C verytightscf TightPNO LED
|  2>
|  3> %pal nprocs 16 end
|  4> %maxcore 4000
|  5> %scf maxiter 999 end
|  6> %basis auxj "autoaux" auxc "autoaux" autoauxlmax true end
|  7> %mdci TCutPNO 1e-7 printlevel 3 end
|  8>
|  9> * xyz 0 1
| 10> O(1)     1.597560181     2.978636709    -1.236245995
| 11> H(1)     1.417961949     3.808511891    -0.786488687
| 12> H(1)     0.711446199     2.593888593    -1.420550970
| 13> O(2)     0.012631031    -1.241255898     1.573836894
| 14> H(2)     0.908618001    -1.252949881     1.168524322
| 15> H(2)     0.168950409    -1.135399007     2.515952529
| 16> *
| 17>
| 18>                          ****END OF INPUT****

CARTESIAN COORDINATES (ANGSTROEM)
---------------------------------
  O      1.597560    2.978637   -1.236246
  H      1.417962    3.808512   -0.786489
  H      0.711446    2.593889   -1.420551
  O      0.012631   -1.241256    1.573837
  H      0.908618   -1.252950    1.168524
  H      0.168950   -1.135399    2.515953

 Total Charge           Charge          ....    0
 Multiplicity           Mult            ....    1
 Number of Electrons    NEL             ....   20
 Basis Dimension        Dim             ....  184

ORBITAL ENERGIES
----------------

  NO   OCC          E(Eh)            E(eV)
   0   2.0000     -20.569123      -559.7143
   1   2.0000     -20.569046      -559.7122
   2   2.0000      -1.345421       -36.6108
   3   2.0000      -1.345346       -36.6087
   4   2.0000      -0.710038       -19.3211
   5   2.0000      -0.709934       -19.3183
   6   2.0000      -0.581034       -15.8107
   7   2.0000      -0.580956       -15.8086
   8   2.0000      -0.508926       -13.8486
   9   2.0000      -0.508394       -13.8341
  10   0.0000       0.026045         0.7087
  11   0.0000       0.039124         1.0646
  12   0.0000       0.048118         1.3094
  13   0.0000       0.056314         1.5324
  14   0.0000       0.132441         3.6039

MULLIKEN ATOMIC CHARGES
-----------------------
   0 O :   -0.463246
   1 H :    0.221604
   2 H :    0.241636
   3 O :   -0.468744
   4 H :    0.244842
   5 H :    0.223908
Sum of atomic charges:   -0.0000000

LOEWDIN ATOMIC CHARGES
----------------------
   0 O :    0.998813
   1 H :   -0.523298
   2 H :   -0.475515
   3 O :    0.998719
   4 H :   -0.475403
   5 H :   -0.523316

  Mayer bond orders larger than 0.100000
B(  0-O ,  1-H ) :   0.9971 B(  0-O ,  2-H ) :   0.9816 B(  3-O ,  4-H ) :   0.9775
B(  3-O ,  5-H ) :   0.9947

E(0)                                       ...   -152.118704035
E(0)                                       ...   -152.118704035
E(CORR)(strong-pairs)                      ...     -0.548049034
E(CORR)(weak-pairs)                        ...     -0.000114659
E(CORR)(corrected)                         ...     -0.548163693
E(TOT)                                     ...   -152.666867729
E(CCSD(T))                                 ...   -152.684388111
FINAL SINGLE POINT ENERGY      -152.684388111254

DIPOLE MOMENT
-------------
                                X             Y             Z
Electronic contribution:      0.00224      -0.09054      -0.13400
Nuclear contribution   :     -0.01116       0.44888       0.66777
                        -----------------------------------------
Total Dipole Moment    :     -0.00892       0.35834       0.53377
                        -----------------------------------------
Magnitude (a.u.)       :      0.64296
Magnitude (Debye)      :      1.63427

Rotational constants in cm-1:     5.707515     0.066064     0.065976
Rotational constants in MHz : 171107.001024  1980.540192  1977.915567

                             ****ORCA TERMINATED NORMALLY****
TOTAL RUN TIME: 0 days 0 hours 0 minutes 37 seconds 354 msec
