                         Program Version 5.0  -  CURRENT   -
|  1> ! DLPNO-CCSD(T1) aug-cc-pVTZ DEFGRID3 RIJCOSX def2/J aug-cc-pVQZ/C verytightscf TightPNO LED
|  2>
|  3> %pal nprocs 16 end
|  4> %maxcore 4000
|  5> %scf maxiter 999 end
|  6> %basis auxj "autoaux" auxc "autoaux" autoauxlmax true end
|  7> %mdci TCutPNO 1e-6 printlevel 3 end
|  8>
|  9> * xyz 0 1
| 10> O(1)     3.364853284     1.252522284    -0.119963272
| 11> H(1)     2.731853532     1.891821037    -0.517486897
| 12> H(1)     4.212012919     1.443946099    -0.529713339
| 13> O(2)     2.482542995    -1.248988714     0.449488905
| 14> H(2)     2.616828786    -1.798226083    -0.326968465
| 15> H(2)     2.828107886    -0.362220961     0.204648083
| 16> *
| 17>
| 18>                          ****END OF INPUT****

CARTESIAN COORDINATES (ANGSTROEM)
---------------------------------
  O      3.364853    1.252522   -0.119963
  H      2.731854    1.891821   -0.517487
  H      4.212013    1.443946   -0.529713
  O      2.482543   -1.248989    0.449489
  H      2.616829   -1.798226   -0.326968
  H      2.828108   -0.362221    0.204648

 Total Charge           Charge          ....    0
 Multiplicity           Mult            ....    1
 Number of Electrons    NEL             ....   20
 Basis Dimension        Dim             ....  184

ORBITAL ENERGIES
----------------

  NO   OCC          E(Eh)            E(eV)
   0   2.0000     -20.600975      -560.5810
   1   2.0000     -20.524096      -558.4890
   2   2.0000      -1.382817       -37.6284
   3   2.0000      -1.306032       -35.5389
   4   2.0000      -0.745143       -20.2764
   5   2.0000      -0.695503       -18.9256
   6   2.0000      -0.609989       -16.5987
   7   2.0000      -0.557643       -15.1742
   8   2.0000      -0.523222       -14.2376
   9   2.0000      -0.468887       -12.7591
  10   0.0000       0.018356         0.4995
  11   0.0000       0.042522         1.1571
  12   0.0000       0.048396         1.3169
  13   0.0000       0.073975         2.0129
  14   0.0000       0.125501         3.4150

MULLIKEN ATOMIC CHARGES
-----------------------
   0 O :   -0.422838
   1 H :    0.243512
   2 H :    0.215050
   3 O :   -0.517572
   4 H :    0.193555
   5 H :    0.288294
Sum of atomic charges:   -0.0000000

LOEWDIN ATOMIC CHARGES
----------------------
   0 O :    1.097387
   1 H :   -0.406351
   2 H :   -0.456259
   3 O :    1.023719
   4 H :   -0.520121
   5 H :   -0.738375

  Mayer bond orders larger than 0.100000
B(  0-O ,  1-H ) :   0.9879 B(  0-O ,  2-H ) :   1.0114 B(  3-O ,  4-H ) :   1.0278
B(  3-O ,  5-H ) :   0.9313

E(0)                                       ...   -152.121123079
E(0)                                       ...   -152.121123079
E(CORR)(strong-pairs)                      ...     -0.549675933
E(CORR)(weak-pairs)                        ...     -0.001374924
E(CORR)(corrected)                         ...     -0.551050857
E(TOT)                                     ...   -152.672173936
E(CCSD(T))                                 ...   -152.690136071
FINAL SINGLE POINT ENERGY      -152.690136070983

DIPOLE MOMENT
-------------
                                X             Y             Z
Electronic contribution:     -0.02198       0.09816       0.26528
Nuclear contribution   :      0.57767       0.97241      -1.52203
                        -----------------------------------------
Total Dipole Moment    :      0.55569       1.07057      -1.25675
                        -----------------------------------------
Magnitude (a.u.)       :      1.74193
Magnitude (Debye)      :      4.42764

Rotational constants in cm-1:     7.800936     0.242732     0.240556
Rotational constants in MHz : 233866.175269  7276.917767  7211.699282

                             ****ORCA TERMINATED NORMALLY****
TOTAL RUN TIME: 0 days 0 hours 0 minutes 33 seconds 955 msec
