                         Program Version 5.0  -  CURRENT   -
|  1> ! DLPNO-CCSD(T1) aug-cc-pVTZ DEFGRID3 RIJCOSX def2/J aug-cc-pVQZ/C verytightscf TightPNO LED
|  2>
|  3> %pal nprocs 16 end
|  4> %maxcore 4000
|  5> %scf maxiter 999 end
|  6> %basis auxj "autoaux" auxc "autoaux" autoauxlmax true end
|  7> %mdci TCutPNO 1e-6 printlevel 3 end
|  8>
|  9> * xyz 0 1
| 10> O(1)     2.482542995    -1.248988714     0.449488905
| 11> H(1)     2.616828786    -1.798226083    -0.326968465
| 12> H(1)     2.828107886    -0.362220961     0.204648083
| 13> O(2)    -1.753042425     0.416462959     0.356105280
| 14> H(2)    -1.120933301    -0.183098298     0.812596940
| 15> H(2)    -2.593310567    -0.048459739     0.359102074
| 16> *
| 17>
| 18>                          ****END OF INPUT****

CARTESIAN COORDINATES (ANGSTROEM)
---------------------------------
  O      2.482543   -1.248989    0.449489
  H      2.616829   -1.798226   -0.326968
  H      2.828108   -0.362221    0.204648
  O     -1.753042    0.416463    0.356105
  H     -1.120933   -0.183098    0.812597
  H     -2.593311   -0.048460    0.359102

 Total Charge           Charge          ....    0
 Multiplicity           Mult            ....    1
 Number of Electrons    NEL             ....   20
 Basis Dimension        Dim             ....  184

ORBITAL ENERGIES
----------------

  NO   OCC          E(Eh)            E(eV)
   0   2.0000     -20.572808      -559.8146
   1   2.0000     -20.563390      -559.5583
   2   2.0000      -1.349351       -36.7177
   3   2.0000      -1.339746       -36.4563
   4   2.0000      -0.715315       -19.4647
   5   2.0000      -0.705584       -19.1999
   6   2.0000      -0.584562       -15.9067
   7   2.0000      -0.574863       -15.6428
   8   2.0000      -0.512753       -13.9527
   9   2.0000      -0.503158       -13.6916
  10   0.0000       0.026461         0.7201
  11   0.0000       0.039895         1.0856
  12   0.0000       0.048108         1.3091
  13   0.0000       0.065262         1.7759
  14   0.0000       0.132871         3.6156

MULLIKEN ATOMIC CHARGES
-----------------------
   0 O :   -0.470739
   1 H :    0.222643
   2 H :    0.248705
   3 O :   -0.470314
   4 H :    0.250121
   5 H :    0.219583
Sum of atomic charges:   -0.0000000

LOEWDIN ATOMIC CHARGES
----------------------
   0 O :    1.000375
   1 H :   -0.523158
   2 H :   -0.475683
   3 O :    0.998791
   4 H :   -0.475614
   5 H :   -0.524712

  Mayer bond orders larger than 0.100000
B(  0-O ,  1-H ) :   1.0003 B(  0-O ,  2-H ) :   0.9733 B(  3-O ,  4-H ) :   0.9710
B(  3-O ,  5-H ) :   1.0008

E(0)                                       ...   -152.119591895
E(0)                                       ...   -152.119591895
E(CORR)(strong-pairs)                      ...     -0.547209709
E(CORR)(weak-pairs)                        ...     -0.001079511
E(CORR)(corrected)                         ...     -0.548289220
E(TOT)                                     ...   -152.667881115
E(CCSD(T))                                 ...   -152.685361676
FINAL SINGLE POINT ENERGY      -152.685361675651

DIPOLE MOMENT
-------------
                                X             Y             Z
Electronic contribution:     -0.02445       0.11615       0.09261
Nuclear contribution   :      0.22615      -0.60509      -0.46763
                        -----------------------------------------
Total Dipole Moment    :      0.20169      -0.48894      -0.37502
                        -----------------------------------------
Magnitude (a.u.)       :      0.64837
Magnitude (Debye)      :      1.64802

Rotational constants in cm-1:     6.702049     0.089111     0.088687
Rotational constants in MHz : 200922.359672  2671.471831  2658.774863

                             ****ORCA TERMINATED NORMALLY****
TOTAL RUN TIME: 0 days 0 hours 0 minutes 17 seconds 226 msec
