                         Program Version 5.0  -  CURRENT   -
|  1> ! DLPNO-CCSD(T1) aug-cc-pVTZ DEFGRID3 RIJCOSX def2/J aug-cc-pVQZ/C verytightscf TightPNO LED
|  2>
|  3> %pal nprocs 16 end
|  4> %maxcore 4000
|  5> %scf maxiter 999 end
|  6> %basis auxj "autoaux" auxc "autoaux" autoauxlmax true end
|  7> %mdci TCutPNO 1e-6 printlevel 3 end
|  8>
|  9> * xyz 0 1
| 10> O(1)    -0.845377446     1.902266646    -1.724481185
| 11> H(1)    -1.198971324     1.335278306    -1.003913817
| 12> H(1)    -0.953209570     1.388839038    -2.529056860
| 13> O(2)    -1.753042425     0.416462959     0.356105280
| 14> H(2)    -1.120933301    -0.183098298     0.812596940
| 15> H(2)    -2.593310567    -0.048459739     0.359102074
| 16> *
| 17>
| 18>                          ****END OF INPUT****

CARTESIAN COORDINATES (ANGSTROEM)
---------------------------------
  O     -0.845377    1.902267   -1.724481
  H     -1.198971    1.335278   -1.003914
  H     -0.953210    1.388839   -2.529057
  O     -1.753042    0.416463    0.356105
  H     -1.120933   -0.183098    0.812597
  H     -2.593311   -0.048460    0.359102

 Total Charge           Charge          ....    0
 Multiplicity           Mult            ....    1
 Number of Electrons    NEL             ....   20
 Basis Dimension        Dim             ....  184

ORBITAL ENERGIES
----------------

  NO   OCC          E(Eh)            E(eV)
   0   2.0000     -20.600904      -560.5791
   1   2.0000     -20.524254      -558.4934
   2   2.0000      -1.382719       -37.6257
   3   2.0000      -1.306160       -35.5424
   4   2.0000      -0.745090       -20.2749
   5   2.0000      -0.695461       -18.9245
   6   2.0000      -0.609972       -16.5982
   7   2.0000      -0.557590       -15.1728
   8   2.0000      -0.523205       -14.2371
   9   2.0000      -0.469034       -12.7631
  10   0.0000       0.018348         0.4993
  11   0.0000       0.042526         1.1572
  12   0.0000       0.048380         1.3165
  13   0.0000       0.073970         2.0128
  14   0.0000       0.125479         3.4145

MULLIKEN ATOMIC CHARGES
-----------------------
   0 O :   -0.514173
   1 H :    0.281817
   2 H :    0.196829
   3 O :   -0.426674
   4 H :    0.243108
   5 H :    0.219094
Sum of atomic charges:    0.0000000

LOEWDIN ATOMIC CHARGES
----------------------
   0 O :    1.023865
   1 H :   -0.738372
   2 H :   -0.520124
   3 O :    1.097222
   4 H :   -0.406431
   5 H :   -0.456160

  Mayer bond orders larger than 0.100000
B(  0-O ,  1-H ) :   0.9416 B(  0-O ,  2-H ) :   1.0246 B(  3-O ,  4-H ) :   0.9891
B(  3-O ,  5-H ) :   1.0050

E(0)                                       ...   -152.121123257
E(0)                                       ...   -152.121123257
E(CORR)(strong-pairs)                      ...     -0.549677210
E(CORR)(weak-pairs)                        ...     -0.001376126
E(CORR)(corrected)                         ...     -0.551053336
E(TOT)                                     ...   -152.672176593
E(CCSD(T))                                 ...   -152.690136006
FINAL SINGLE POINT ENERGY      -152.690136006488

DIPOLE MOMENT
-------------
                                X             Y             Z
Electronic contribution:      0.01476       0.20957       0.19109
Nuclear contribution   :     -0.55734      -1.78533       0.31253
                        -----------------------------------------
Total Dipole Moment    :     -0.54257      -1.57576       0.50363
                        -----------------------------------------
Magnitude (a.u.)       :      1.74099
Magnitude (Debye)      :      4.42525

Rotational constants in cm-1:     7.800743     0.242733     0.240556
Rotational constants in MHz : 233860.405972  7276.953383  7211.700839

                             ****ORCA TERMINATED NORMALLY****
TOTAL RUN TIME: 0 days 0 hours 0 minutes 34 seconds 229 msec
