                         Program Version 5.0  -  CURRENT   -
|  1> ! DLPNO-CCSD(T1) aug-cc-pVTZ DEFGRID3 RIJCOSX def2/J aug-cc-pVQZ/C verytightscf TightPNO LED
|  2>
|  3> %pal nprocs 16 end
|  4> %maxcore 4000
|  5> %scf maxiter 999 end
|  6> %basis auxj "autoaux" auxc "autoaux" autoauxlmax true end
|  7> %mdci TCutPNO 1e-6 printlevel 3 end
|  8>
|  9> * xyz 0 1
| 10> O(1)    -0.845377446     1.902266646    -1.724481185
| 11> H(1)    -1.198971324     1.335278306    -1.003913817
| 12> H(1)    -0.953209570     1.388839038    -2.529056860
| 13> O(2)     3.364853284     1.252522284    -0.119963272
| 14> H(2)     2.731853532     1.891821037    -0.517486897
| 15> H(2)     4.212012919     1.443946099    -0.529713339
| 16> *
| 17>
| 18>                          ****END OF INPUT****

CARTESIAN COORDINATES (ANGSTROEM)
---------------------------------
  O     -0.845377    1.902267   -1.724481
  H     -1.198971    1.335278   -1.003914
  H     -0.953210    1.388839   -2.529057
  O      3.364853    1.252522   -0.119963
  H      2.731854    1.891821   -0.517487
  H      4.212013    1.443946   -0.529713

 Total Charge           Charge          ....    0
 Multiplicity           Mult            ....    1
 Number of Electrons    NEL             ....   20
 Basis Dimension        Dim             ....  184

ORBITAL ENERGIES
----------------

  NO   OCC          E(Eh)            E(eV)
   0   2.0000     -20.572948      -559.8184
   1   2.0000     -20.563423      -559.5592
   2   2.0000      -1.349456       -36.7206
   3   2.0000      -1.339831       -36.4586
   4   2.0000      -0.715279       -19.4637
   5   2.0000      -0.705582       -19.1999
   6   2.0000      -0.584584       -15.9073
   7   2.0000      -0.574853       -15.6425
   8   2.0000      -0.512879       -13.9561
   9   2.0000      -0.503245       -13.6940
  10   0.0000       0.026464         0.7201
  11   0.0000       0.039900         1.0857
  12   0.0000       0.048110         1.3091
  13   0.0000       0.065260         1.7758
  14   0.0000       0.132855         3.6152

MULLIKEN ATOMIC CHARGES
-----------------------
   0 O :   -0.466670
   1 H :    0.242922
   2 H :    0.224412
   3 O :   -0.469465
   4 H :    0.251021
   5 H :    0.217780
Sum of atomic charges:    0.0000000

LOEWDIN ATOMIC CHARGES
----------------------
   0 O :    1.000466
   1 H :   -0.475816
   2 H :   -0.523116
   3 O :    0.998877
   4 H :   -0.475627
   5 H :   -0.524784

  Mayer bond orders larger than 0.100000
B(  0-O ,  1-H ) :   0.9818 B(  0-O ,  2-H ) :   0.9977 B(  3-O ,  4-H ) :   0.9706
B(  3-O ,  5-H ) :   1.0034

E(0)                                       ...   -152.119593002
E(0)                                       ...   -152.119593002
E(CORR)(strong-pairs)                      ...     -0.547213124
E(CORR)(weak-pairs)                        ...     -0.001079510
E(CORR)(corrected)                         ...     -0.548292635
E(TOT)                                     ...   -152.667885636
E(CCSD(T))                                 ...   -152.685365351
FINAL SINGLE POINT ENERGY      -152.685365351102

DIPOLE MOMENT
-------------
                                X             Y             Z
Electronic contribution:      0.02095       0.04227       0.14296
Nuclear contribution   :     -0.20581      -0.20783      -0.74187
                        -----------------------------------------
Total Dipole Moment    :     -0.18486      -0.16556      -0.59891
                        -----------------------------------------
Magnitude (a.u.)       :      0.64829
Magnitude (Debye)      :      1.64782

Rotational constants in cm-1:     6.702298     0.089110     0.088686
Rotational constants in MHz : 200929.839879  2671.446001  2658.749403

                             ****ORCA TERMINATED NORMALLY****
TOTAL RUN TIME: 0 days 0 hours 0 minutes 15 seconds 939 msec
