                         Program Version 5.0  -  CURRENT   -
|  1> ! DLPNO-CCSD(T1) aug-cc-pVTZ DEFGRID3 RIJCOSX def2/J aug-cc-pVQZ/C verytightscf TightPNO LED
|  2>
|  3> %pal nprocs 16 end
|  4> %maxcore 4000
|  5> %scf maxiter 999 end
|  6> %basis auxj "autoaux" auxc "autoaux" autoauxlmax true end
|  7> %mdci TCutPNO 1e-6 printlevel 3 end
|  8>
|  9> * xyz 0 1
| 10> O(1)    -0.845377446     1.902266646    -1.724481185
| 11> H(1)    -1.198971324     1.335278306    -1.003913817
| 12> H(1)    -0.953209570     1.388839038    -2.529056860
| 13> O(2)     2.482542995    -1.248988714     0.449488905
| 14> H(2)     2.616828786    -1.798226083    -0.326968465
| 15> H(2)     2.828107886    -0.362220961     0.204648083
| 16> *
| 17>
| 18>                          ****END OF INPUT****

CARTESIAN COORDINATES (ANGSTROEM)
---------------------------------
  O     -0.845377    1.902267   -1.724481
  H     -1.198971    1.335278   -1.003914
  H     -0.953210    1.388839   -2.529057
  O      2.482543   -1.248989    0.449489
  H      2.616829   -1.798226   -0.326968
  H      2.828108   -0.362221    0.204648

 Total Charge           Charge          ....    0
 Multiplicity           Mult            ....    1
 Number of Electrons    NEL             ....   20
 Basis Dimension        Dim             ....  184

ORBITAL ENERGIES
----------------

  NO   OCC          E(Eh)            E(eV)
   0   2.0000     -20.569835      -559.7337
   1   2.0000     -20.569692      -559.7298
   2   2.0000      -1.346321       -36.6352
   3   2.0000      -1.346211       -36.6323
   4   2.0000      -0.712218       -19.3804
   5   2.0000      -0.712133       -19.3781
   6   2.0000      -0.581092       -15.8123
   7   2.0000      -0.581060       -15.8114
   8   2.0000      -0.509989       -13.8775
   9   2.0000      -0.509032       -13.8515
  10   0.0000       0.023923         0.6510
  11   0.0000       0.041599         1.1320
  12   0.0000       0.047331         1.2879
  13   0.0000       0.052176         1.4198
  14   0.0000       0.129328         3.5192

MULLIKEN ATOMIC CHARGES
-----------------------
   0 O :   -0.465588
   1 H :    0.243001
   2 H :    0.222589
   3 O :   -0.466714
   4 H :    0.219591
   5 H :    0.247122
Sum of atomic charges:    0.0000000

LOEWDIN ATOMIC CHARGES
----------------------
   0 O :    1.000200
   1 H :   -0.476223
   2 H :   -0.523977
   3 O :    1.000148
   4 H :   -0.524027
   5 H :   -0.476121

  Mayer bond orders larger than 0.100000
B(  0-O ,  1-H ) :   0.9793 B(  0-O ,  2-H ) :   0.9959 B(  3-O ,  4-H ) :   0.9999
B(  3-O ,  5-H ) :   0.9734

E(0)                                       ...   -152.118773293
E(0)                                       ...   -152.118773293
E(CORR)(strong-pairs)                      ...     -0.547200088
E(CORR)(weak-pairs)                        ...     -0.001053289
E(CORR)(corrected)                         ...     -0.548253377
E(TOT)                                     ...   -152.667026670
E(CCSD(T))                                 ...   -152.684503159
FINAL SINGLE POINT ENERGY      -152.684503159468

DIPOLE MOMENT
-------------
                                X             Y             Z
Electronic contribution:     -0.00276       0.12729       0.18923
Nuclear contribution   :      0.01534      -0.61835      -0.92001
                        -----------------------------------------
Total Dipole Moment    :      0.01258      -0.49106      -0.73078
                        -----------------------------------------
Magnitude (a.u.)       :      0.88053
Magnitude (Debye)      :      2.23814

Rotational constants in cm-1:     5.111632     0.073234     0.073046
Rotational constants in MHz : 153242.875058  2195.499035  2189.867345

                             ****ORCA TERMINATED NORMALLY****
TOTAL RUN TIME: 0 days 0 hours 0 minutes 15 seconds 554 msec
