                         Program Version 5.0  -  CURRENT   -
|  1> ! DLPNO-CCSD(T1) aug-cc-pVQZ DEFGRID3 RIJCOSX def2/J aug-cc-pV5Z/C verytightscf TightPNO LED
|  2>
|  3> %pal nprocs 16 end
|  4> %maxcore 6000
|  5> %scf maxiter 999 end
|  6> %basis auxj "autoaux" auxc "autoaux" autoauxlmax true end
|  7> %mdci TCutPNO 1e-6 printlevel 3 end
|  8>
|  9> * xyz 0 1
| 10> O(1)    -0.845377446     1.902266646    -1.724481185
| 11> H(1)    -1.198971324     1.335278306    -1.003913817
| 12> H(1)    -0.953209570     1.388839038    -2.529056860
| 13> O(2)     2.482542995    -1.248988714     0.449488905
| 14> H(2)     2.616828786    -1.798226083    -0.326968465
| 15> H(2)     2.828107886    -0.362220961     0.204648083
| 16> *
| 17>
| 18>                          ****END OF INPUT****

CARTESIAN COORDINATES (ANGSTROEM)
---------------------------------
  O     -0.845377    1.902267   -1.724481
  H     -1.198971    1.335278   -1.003914
  H     -0.953210    1.388839   -2.529057
  O      2.482543   -1.248989    0.449489
  H      2.616829   -1.798226   -0.326968
  H      2.828108   -0.362221    0.204648

 Total Charge           Charge          ....    0
 Multiplicity           Mult            ....    1
 Number of Electrons    NEL             ....   20
 Basis Dimension        Dim             ....  344

ORBITAL ENERGIES
----------------

  NO   OCC          E(Eh)            E(eV)
   0   2.0000     -20.567314      -559.6651
   1   2.0000     -20.567226      -559.6627
   2   2.0000      -1.345570       -36.6148
   3   2.0000      -1.345535       -36.6139
   4   2.0000      -0.712185       -19.3795
   5   2.0000      -0.712088       -19.3769
   6   2.0000      -0.581123       -15.8132
   7   2.0000      -0.581085       -15.8121
   8   2.0000      -0.510110       -13.8808
   9   2.0000      -0.509158       -13.8549
  10   0.0000       0.021703         0.5906
  11   0.0000       0.038233         1.0404
  12   0.0000       0.042894         1.1672
  13   0.0000       0.047166         1.2835
  14   0.0000       0.110664         3.0113

MULLIKEN ATOMIC CHARGES
-----------------------
   0 O :   -0.605107
   1 H :    0.310220
   2 H :    0.294900
   3 O :   -0.602869
   4 H :    0.293779
   5 H :    0.309077
Sum of atomic charges:    0.0000000

LOEWDIN ATOMIC CHARGES
----------------------
   0 O :    1.570387
   1 H :   -0.760707
   2 H :   -0.809679
   3 O :    1.570354
   4 H :   -0.809626
   5 H :   -0.760729

  Mayer bond orders larger than 0.100000
B(  0-O ,  1-H ) :   0.9508 B(  0-O ,  2-H ) :   0.9672 B(  3-O ,  4-H ) :   0.9683
B(  3-O ,  5-H ) :   0.9523

E(0)                                       ...   -152.129408263
E(0)                                       ...   -152.129408263
E(CORR)(strong-pairs)                      ...     -0.576192921
E(CORR)(weak-pairs)                        ...     -0.002968293
E(CORR)(corrected)                         ...     -0.579161213
E(TOT)                                     ...   -152.708569476
E(CCSD(T))                                 ...   -152.727483902
FINAL SINGLE POINT ENERGY      -152.727483901580

DIPOLE MOMENT
-------------
                                X             Y             Z
Electronic contribution:     -0.00297       0.12753       0.19031
Nuclear contribution   :      0.01534      -0.61835      -0.92001
                        -----------------------------------------
Total Dipole Moment    :      0.01236      -0.49082      -0.72970
                        -----------------------------------------
Magnitude (a.u.)       :      0.87950
Magnitude (Debye)      :      2.23552

Rotational constants in cm-1:     5.111632     0.073234     0.073046
Rotational constants in MHz : 153242.875058  2195.499035  2189.867345

                             ****ORCA TERMINATED NORMALLY****
TOTAL RUN TIME: 0 days 0 hours 0 minutes 44 seconds 963 msec
