                         Program Version 5.0  -  CURRENT   -
|  1> ! DLPNO-CCSD(T1) aug-cc-pVQZ DEFGRID3 RIJCOSX def2/J aug-cc-pV5Z/C verytightscf TightPNO LED
|  2>
|  3> %pal nprocs 16 end
|  4> %maxcore 6000
|  5> %scf maxiter 999 end
|  6> %basis auxj "autoaux" auxc "autoaux" autoauxlmax true end
|  7> %mdci TCutPNO 1e-6 printlevel 3 end
|  8>
|  9> * xyz 0 1
| 10> O(1)     3.364853284     1.252522284    -0.119963272
| 11> H(1)     2.731853532     1.891821037    -0.517486897
| 12> H(1)     4.212012919     1.443946099    -0.529713339
| 13> O(2)     0.012631031    -1.241255898     1.573836894
| 14> H(2)     0.908618001    -1.252949881     1.168524322
| 15> H(2)     0.168950409    -1.135399007     2.515952529
| 16> *
| 17>
| 18>                          ****END OF INPUT****

CARTESIAN COORDINATES (ANGSTROEM)
---------------------------------
  O      3.364853    1.252522   -0.119963
  H      2.731854    1.891821   -0.517487
  H      4.212013    1.443946   -0.529713
  O      0.012631   -1.241256    1.573837
  H      0.908618   -1.252950    1.168524
  H      0.168950   -1.135399    2.515953

 Total Charge           Charge          ....    0
 Multiplicity           Mult            ....    1
 Number of Electrons    NEL             ....   20
 Basis Dimension        Dim             ....  344

ORBITAL ENERGIES
----------------

  NO   OCC          E(Eh)            E(eV)
   0   2.0000     -20.572485      -559.8058
   1   2.0000     -20.558133      -559.4152
   2   2.0000      -1.350548       -36.7503
   3   2.0000      -1.336208       -36.3601
   4   2.0000      -0.717135       -19.5142
   5   2.0000      -0.701584       -19.0911
   6   2.0000      -0.586824       -15.9683
   7   2.0000      -0.572785       -15.5863
   8   2.0000      -0.514897       -14.0111
   9   2.0000      -0.500433       -13.6175
  10   0.0000       0.023128         0.6293
  11   0.0000       0.038166         1.0385
  12   0.0000       0.044051         1.1987
  13   0.0000       0.055024         1.4973
  14   0.0000       0.115653         3.1471

MULLIKEN ATOMIC CHARGES
-----------------------
   0 O :   -0.612351
   1 H :    0.315797
   2 H :    0.296579
   3 O :   -0.614621
   4 H :    0.317457
   5 H :    0.297139
Sum of atomic charges:   -0.0000000

LOEWDIN ATOMIC CHARGES
----------------------
   0 O :    1.569107
   1 H :   -0.758240
   2 H :   -0.808874
   3 O :    1.568673
   4 H :   -0.761319
   5 H :   -0.809347

  Mayer bond orders larger than 0.100000
B(  0-O ,  1-H ) :   0.9458 B(  0-O ,  2-H ) :   0.9665 B(  3-O ,  4-H ) :   0.9453
B(  3-O ,  5-H ) :   0.9637

E(0)                                       ...   -152.130312276
E(0)                                       ...   -152.130312276
E(CORR)(strong-pairs)                      ...     -0.576220575
E(CORR)(weak-pairs)                        ...     -0.003005201
E(CORR)(corrected)                         ...     -0.579225776
E(TOT)                                     ...   -152.709538052
E(CCSD(T))                                 ...   -152.728455721
FINAL SINGLE POINT ENERGY      -152.728455721485

DIPOLE MOMENT
-------------
                                X             Y             Z
Electronic contribution:     -0.19556      -0.14075       0.03481
Nuclear contribution   :      1.05416       0.76984      -0.22513
                        -----------------------------------------
Total Dipole Moment    :      0.85860       0.62909      -0.19032
                        -----------------------------------------
Magnitude (a.u.)       :      1.08128
Magnitude (Debye)      :      2.74839

Rotational constants in cm-1:     7.552078     0.090273     0.090007
Rotational constants in MHz : 226405.611711  2706.314357  2698.335113

                             ****ORCA TERMINATED NORMALLY****
TOTAL RUN TIME: 0 days 0 hours 0 minutes 49 seconds 179 msec
