                         Program Version 5.0  -  CURRENT   -
|  1> ! DLPNO-CCSD(T1) aug-cc-pVQZ DEFGRID3 RIJCOSX def2/J aug-cc-pV5Z/C verytightscf TightPNO LED
|  2>
|  3> %pal nprocs 16 end
|  4> %maxcore 6000
|  5> %scf maxiter 999 end
|  6> %basis auxj "autoaux" auxc "autoaux" autoauxlmax true end
|  7> %mdci TCutPNO 1e-6 printlevel 3 end
|  8>
|  9> * xyz 0 1
| 10> O(1)     3.364853284     1.252522284    -0.119963272
| 11> H(1)     2.731853532     1.891821037    -0.517486897
| 12> H(1)     4.212012919     1.443946099    -0.529713339
| 13> O(2)    -1.753042425     0.416462959     0.356105280
| 14> H(2)    -1.120933301    -0.183098298     0.812596940
| 15> H(2)    -2.593310567    -0.048459739     0.359102074
| 16> *
| 17>
| 18>                          ****END OF INPUT****

CARTESIAN COORDINATES (ANGSTROEM)
---------------------------------
  O      3.364853    1.252522   -0.119963
  H      2.731854    1.891821   -0.517487
  H      4.212013    1.443946   -0.529713
  O     -1.753042    0.416463    0.356105
  H     -1.120933   -0.183098    0.812597
  H     -2.593311   -0.048460    0.359102

 Total Charge           Charge          ....    0
 Multiplicity           Mult            ....    1
 Number of Electrons    NEL             ....   20
 Basis Dimension        Dim             ....  344

ORBITAL ENERGIES
----------------

  NO   OCC          E(Eh)            E(eV)
   0   2.0000     -20.564751      -559.5953
   1   2.0000     -20.564724      -559.5946
   2   2.0000      -1.342796       -36.5393
   3   2.0000      -1.342782       -36.5390
   4   2.0000      -0.709493       -19.3063
   5   2.0000      -0.709296       -19.3009
   6   2.0000      -0.578570       -15.7437
   7   2.0000      -0.578534       -15.7427
   8   2.0000      -0.507089       -13.7986
   9   2.0000      -0.506964       -13.7952
  10   0.0000       0.026026         0.7082
  11   0.0000       0.033802         0.9198
  12   0.0000       0.051554         1.4029
  13   0.0000       0.051724         1.4075
  14   0.0000       0.119247         3.2449

MULLIKEN ATOMIC CHARGES
-----------------------
   0 O :   -0.610327
   1 H :    0.309889
   2 H :    0.300436
   3 O :   -0.611025
   4 H :    0.309755
   5 H :    0.301272
Sum of atomic charges:   -0.0000000

LOEWDIN ATOMIC CHARGES
----------------------
   0 O :    1.568272
   1 H :   -0.758677
   2 H :   -0.809594
   3 O :    1.568266
   4 H :   -0.758649
   5 H :   -0.809617

  Mayer bond orders larger than 0.100000
B(  0-O ,  1-H ) :   0.9512 B(  0-O ,  2-H ) :   0.9619 B(  3-O ,  4-H ) :   0.9526
B(  3-O ,  5-H ) :   0.9616

E(0)                                       ...   -152.129415551
E(0)                                       ...   -152.129415551
E(CORR)(strong-pairs)                      ...     -0.576215333
E(CORR)(weak-pairs)                        ...     -0.002956089
E(CORR)(corrected)                         ...     -0.579171422
E(TOT)                                     ...   -152.708586973
E(CCSD(T))                                 ...   -152.727504625
FINAL SINGLE POINT ENERGY      -152.727504624547

DIPOLE MOMENT
-------------
                                X             Y             Z
Electronic contribution:     -0.00110       0.03973       0.05905
Nuclear contribution   :      0.00499      -0.19457      -0.28948
                        -----------------------------------------
Total Dipole Moment    :      0.00390      -0.15484      -0.23043
                        -----------------------------------------
Magnitude (a.u.)       :      0.27765
Magnitude (Debye)      :      0.70573

Rotational constants in cm-1:    10.618405     0.067165     0.066805
Rotational constants in MHz : 318331.773573  2013.550394  2002.776621

                             ****ORCA TERMINATED NORMALLY****
TOTAL RUN TIME: 0 days 0 hours 0 minutes 52 seconds 834 msec^
