                         Program Version 5.0  -  CURRENT   -
|  1> ! DLPNO-CCSD(T1) aug-cc-pVQZ DEFGRID3 RIJCOSX def2/J aug-cc-pV5Z/C verytightscf TightPNO LED
|  2>
|  3> %pal nprocs 16 end
|  4> %maxcore 6000
|  5> %scf maxiter 999 end
|  6> %basis auxj "autoaux" auxc "autoaux" autoauxlmax true end
|  7> %mdci TCutPNO 1e-6 printlevel 3 end
|  8>
|  9> * xyz 0 1
| 10> O(1)     3.364853284     1.252522284    -0.119963272
| 11> H(1)     2.731853532     1.891821037    -0.517486897
| 12> H(1)     4.212012919     1.443946099    -0.529713339
| 13> O(2)     2.482542995    -1.248988714     0.449488905
| 14> H(2)     2.616828786    -1.798226083    -0.326968465
| 15> H(2)     2.828107886    -0.362220961     0.204648083
| 16> *
| 17>
| 18>                          ****END OF INPUT****

CARTESIAN COORDINATES (ANGSTROEM)
---------------------------------
  O      3.364853    1.252522   -0.119963
  H      2.731854    1.891821   -0.517487
  H      4.212013    1.443946   -0.529713
  O      2.482543   -1.248989    0.449489
  H      2.616829   -1.798226   -0.326968
  H      2.828108   -0.362221    0.204648

 Total Charge           Charge          ....    0
 Multiplicity           Mult            ....    1
 Number of Electrons    NEL             ....   20
 Basis Dimension        Dim             ....  344

ORBITAL ENERGIES
----------------

  NO   OCC          E(Eh)            E(eV)
   0   2.0000     -20.598542      -560.5148
   1   2.0000     -20.521637      -558.4221
   2   2.0000      -1.382068       -37.6080
   3   2.0000      -1.305415       -35.5222
   4   2.0000      -0.745162       -20.2769
   5   2.0000      -0.695413       -18.9232
   6   2.0000      -0.610035       -16.5999
   7   2.0000      -0.557708       -15.1760
   8   2.0000      -0.523285       -14.2393
   9   2.0000      -0.469070       -12.7640
  10   0.0000       0.016057         0.4369
  11   0.0000       0.038418         1.0454
  12   0.0000       0.043910         1.1948
  13   0.0000       0.066789         1.8174
  14   0.0000       0.105296         2.8653

MULLIKEN ATOMIC CHARGES
-----------------------
   0 O :   -0.535118
   1 H :    0.319643
   2 H :    0.298851
   3 O :   -0.603060
   4 H :    0.284515
   5 H :    0.235169
Sum of atomic charges:    0.0000000

LOEWDIN ATOMIC CHARGES
----------------------
   0 O :    1.676898
   1 H :   -0.659704
   2 H :   -0.710613
   3 O :    1.576325
   4 H :   -0.802378
   5 H :   -1.080528

  Mayer bond orders larger than 0.100000
B(  0-O ,  1-H ) :   0.9337 B(  0-O ,  2-H ) :   0.9569 B(  3-O ,  4-H ) :   0.9658
B(  3-O ,  5-H ) :   1.0081

E(0)                                       ...   -152.131731469
E(0)                                       ...   -152.131731469
E(CORR)(strong-pairs)                      ...     -0.578514981
E(CORR)(weak-pairs)                        ...     -0.003435199
E(CORR)(corrected)                         ...     -0.581950180
E(TOT)                                     ...   -152.713681649
E(CCSD(T))                                 ...   -152.733065824
FINAL SINGLE POINT ENERGY      -152.733065824201

DIPOLE MOMENT
-------------
                                X             Y             Z
Electronic contribution:     -0.02227       0.09721       0.26609
Nuclear contribution   :      0.57767       0.97241      -1.52203
                        -----------------------------------------
Total Dipole Moment    :      0.55540       1.06962      -1.25594
                        -----------------------------------------
Magnitude (a.u.)       :      1.74067
Magnitude (Debye)      :      4.42444

Rotational constants in cm-1:     7.800936     0.242732     0.240556
Rotational constants in MHz : 233866.175269  7276.917767  7211.699282

                             ****ORCA TERMINATED NORMALLY****
TOTAL RUN TIME: 0 days 0 hours 1 minutes 33 seconds 914 msec
