                         Program Version 5.0  -  CURRENT   -
|  1> ! DLPNO-CCSD(T1) aug-cc-pVQZ DEFGRID3 RIJCOSX def2/J aug-cc-pV5Z/C verytightscf TightPNO LED
|  2>
|  3> %pal nprocs 16 end
|  4> %maxcore 6000
|  5> %scf maxiter 999 end
|  6> %basis auxj "autoaux" auxc "autoaux" autoauxlmax true end
|  7> %mdci TCutPNO 1e-6 printlevel 3 end
|  8>
|  9> * xyz 0 1
| 10> O(1)     1.597560181     2.978636709    -1.236245995
| 11> H(1)     1.417961949     3.808511891    -0.786488687
| 12> H(1)     0.711446199     2.593888593    -1.420550970
| 13> O(2)    -0.845377446     1.902266646    -1.724481185
| 14> H(2)    -1.198971324     1.335278306    -1.003913817
| 15> H(2)    -0.953209570     1.388839038    -2.529056860
| 16> *
| 17>
| 18>                          ****END OF INPUT****

CARTESIAN COORDINATES (ANGSTROEM)
---------------------------------
  O      1.597560    2.978637   -1.236246
  H      1.417962    3.808512   -0.786489
  H      0.711446    2.593889   -1.420551
  O     -0.845377    1.902267   -1.724481
  H     -1.198971    1.335278   -1.003914
  H     -0.953210    1.388839   -2.529057

 Total Charge           Charge          ....    0
 Multiplicity           Mult            ....    1
 Number of Electrons    NEL             ....   20
 Basis Dimension        Dim             ....  344

ORBITAL ENERGIES
----------------

  NO   OCC          E(Eh)            E(eV)
   0   2.0000     -20.598582      -560.5159
   1   2.0000     -20.521844      -558.4278
   2   2.0000      -1.382672       -37.6244
   3   2.0000      -1.305614       -35.5276
   4   2.0000      -0.745524       -20.2867
   5   2.0000      -0.693040       -18.8586
   6   2.0000      -0.615813       -16.7571
   7   2.0000      -0.554149       -15.0792
   8   2.0000      -0.525124       -14.2893
   9   2.0000      -0.469471       -12.7750
  10   0.0000       0.017965         0.4889
  11   0.0000       0.039089         1.0637
  12   0.0000       0.045153         1.2287
  13   0.0000       0.068279         1.8580
  14   0.0000       0.102464         2.7882

MULLIKEN ATOMIC CHARGES
-----------------------
   0 O :   -0.618117
   1 H :    0.291608
   2 H :    0.240537
   3 O :   -0.536954
   4 H :    0.317199
   5 H :    0.305727
Sum of atomic charges:   -0.0000000

LOEWDIN ATOMIC CHARGES
----------------------
   0 O :    1.574714
   1 H :   -0.801189
   2 H :   -1.081287
   3 O :    1.676088
   4 H :   -0.660805
   5 H :   -0.707520

  Mayer bond orders larger than 0.100000
B(  0-O ,  1-H ) :   0.9587 B(  0-O ,  2-H ) :   0.9929 B(  3-O ,  4-H ) :   0.9338
B(  3-O ,  5-H ) :   0.9448

E(0)                                       ...   -152.132430347
E(0)                                       ...   -152.132430347
E(CORR)(strong-pairs)                      ...     -0.578494002
E(CORR)(weak-pairs)                        ...     -0.003414552
E(CORR)(corrected)                         ...     -0.581908554
E(TOT)                                     ...   -152.714338901
E(CCSD(T))                                 ...   -152.733719166
FINAL SINGLE POINT ENERGY      -152.733719166040

DIPOLE MOMENT
-------------
                                X             Y             Z
Electronic contribution:     -0.00551      -0.04575      -0.10300
Nuclear contribution   :     -1.27113      -0.52879       0.15103
                        -----------------------------------------
Total Dipole Moment    :     -1.27664      -0.57454       0.04802
                        -----------------------------------------
Magnitude (a.u.)       :      1.40079
Magnitude (Debye)      :      3.56052

Rotational constants in cm-1:     7.421955     0.244768     0.241946
Rotational constants in MHz : 222504.624744  7337.964978  7253.351726

                             ****ORCA TERMINATED NORMALLY****
TOTAL RUN TIME: 0 days 0 hours 1 minutes 35 seconds 378 msec
