                         Program Version 5.0  -  CURRENT   -
|  1> ! DLPNO-CCSD(T1) aug-cc-pVQZ DEFGRID3 RIJCOSX def2/J aug-cc-pV5Z/C verytightscf TightPNO LED
|  2>
|  3> %pal nprocs 16 end
|  4> %maxcore 6000
|  5> %scf maxiter 999 end
|  6> %basis auxj "autoaux" auxc "autoaux" autoauxlmax true end
|  7> %mdci TCutPNO 1e-6 printlevel 3 end
|  8>
|  9> * xyz 0 1
| 10> O(1)    -0.845377446     1.902266646    -1.724481185
| 11> H(1)    -1.198971324     1.335278306    -1.003913817
| 12> H(1)    -0.953209570     1.388839038    -2.529056860
| 13> O(2)     3.364853284     1.252522284    -0.119963272
| 14> H(2)     2.731853532     1.891821037    -0.517486897
| 15> H(2)     4.212012919     1.443946099    -0.529713339
| 16> *
| 17>
| 18>                          ****END OF INPUT****

CARTESIAN COORDINATES (ANGSTROEM)
---------------------------------
  O     -0.845377    1.902267   -1.724481
  H     -1.198971    1.335278   -1.003914
  H     -0.953210    1.388839   -2.529057
  O      3.364853    1.252522   -0.119963
  H      2.731854    1.891821   -0.517487
  H      4.212013    1.443946   -0.529713

 Total Charge           Charge          ....    0
 Multiplicity           Mult            ....    1
 Number of Electrons    NEL             ....   20
 Basis Dimension        Dim             ....  344

ORBITAL ENERGIES
----------------

  NO   OCC          E(Eh)            E(eV)
   0   2.0000     -20.570435      -559.7500
   1   2.0000     -20.560934      -559.4915
   2   2.0000      -1.348682       -36.6995
   3   2.0000      -1.339056       -36.4376
   4   2.0000      -0.715294       -19.4641
   5   2.0000      -0.705592       -19.2001
   6   2.0000      -0.584616       -15.9082
   7   2.0000      -0.574900       -15.6438
   8   2.0000      -0.512933       -13.9576
   9   2.0000      -0.503333       -13.6964
  10   0.0000       0.024055         0.6546
  11   0.0000       0.036517         0.9937
  12   0.0000       0.043583         1.1860
  13   0.0000       0.059392         1.6161
  14   0.0000       0.110659         3.0112

MULLIKEN ATOMIC CHARGES
-----------------------
   0 O :   -0.615626
   1 H :    0.315882
   2 H :    0.299999
   3 O :   -0.608200
   4 H :    0.308871
   5 H :    0.299075
Sum of atomic charges:   -0.0000000

LOEWDIN ATOMIC CHARGES
----------------------
   0 O :    1.570986
   1 H :   -0.760025
   2 H :   -0.808885
   3 O :    1.568501
   4 H :   -0.760510
   5 H :   -0.810066

  Mayer bond orders larger than 0.100000
B(  0-O ,  1-H ) :   0.9445 B(  0-O ,  2-H ) :   0.9630 B(  3-O ,  4-H ) :   0.9548
B(  3-O ,  5-H ) :   0.9601

E(0)                                       ...   -152.130217504
E(0)                                       ...   -152.130217504
E(CORR)(strong-pairs)                      ...     -0.576193385
E(CORR)(weak-pairs)                        ...     -0.002997916
E(CORR)(corrected)                         ...     -0.579191301
E(TOT)                                     ...   -152.709408805
E(CCSD(T))                                 ...   -152.728325094
FINAL SINGLE POINT ENERGY      -152.728325094256

DIPOLE MOMENT
-------------
                                X             Y             Z
Electronic contribution:      0.02119       0.04232       0.14372
Nuclear contribution   :     -0.20581      -0.20783      -0.74187
                        -----------------------------------------
Total Dipole Moment    :     -0.18462      -0.16551      -0.59815
                        -----------------------------------------
Magnitude (a.u.)       :      0.64751
Magnitude (Debye)      :      1.64583

Rotational constants in cm-1:     6.702298     0.089110     0.088686
Rotational constants in MHz : 200929.839879  2671.446001  2658.749403

                             ****ORCA TERMINATED NORMALLY****
TOTAL RUN TIME: 0 days 0 hours 1 minutes 5 seconds 656 msec
