                         Program Version 5.0  -  CURRENT   -
|  1> ! DLPNO-CCSD(T1) aug-cc-pVQZ DEFGRID3 RIJCOSX def2/J aug-cc-pV5Z/C verytightscf TightPNO LED
|  2>
|  3> %pal nprocs 16 end
|  4> %maxcore 6000
|  5> %scf maxiter 999 end
|  6> %basis auxj "autoaux" auxc "autoaux" autoauxlmax true end
|  7> %mdci TCutPNO 1e-6 printlevel 3 end
|  8>
|  9> * xyz 0 1
| 10> O(1)     2.482542995    -1.248988714     0.449488905
| 11> H(1)     2.616828786    -1.798226083    -0.326968465
| 12> H(1)     2.828107886    -0.362220961     0.204648083
| 13> O(2)    -1.753042425     0.416462959     0.356105280
| 14> H(2)    -1.120933301    -0.183098298     0.812596940
| 15> H(2)    -2.593310567    -0.048459739     0.359102074
| 16> *
| 17>
| 18>                          ****END OF INPUT****

CARTESIAN COORDINATES (ANGSTROEM)
---------------------------------
  O      2.482543   -1.248989    0.449489
  H      2.616829   -1.798226   -0.326968
  H      2.828108   -0.362221    0.204648
  O     -1.753042    0.416463    0.356105
  H     -1.120933   -0.183098    0.812597
  H     -2.593311   -0.048460    0.359102

 Total Charge           Charge          ....    0
 Multiplicity           Mult            ....    1
 Number of Electrons    NEL             ....   20
 Basis Dimension        Dim             ....  344

ORBITAL ENERGIES
----------------

  NO   OCC          E(Eh)            E(eV)
   0   2.0000     -20.570339      -559.7474
   1   2.0000     -20.560910      -559.4908
   2   2.0000      -1.348703       -36.7001
   3   2.0000      -1.339050       -36.4374
   4   2.0000      -0.715227       -19.4623
   5   2.0000      -0.705582       -19.1999
   6   2.0000      -0.584578       -15.9072
   7   2.0000      -0.574871       -15.6430
   8   2.0000      -0.512954       -13.9582
   9   2.0000      -0.503329       -13.6963
  10   0.0000       0.024052         0.6545
  11   0.0000       0.036516         0.9936
  12   0.0000       0.043585         1.1860
  13   0.0000       0.059395         1.6162
  14   0.0000       0.110657         3.0111

MULLIKEN ATOMIC CHARGES
-----------------------
   0 O :   -0.612163
   1 H :    0.297194
   2 H :    0.315258
   3 O :   -0.607751
   4 H :    0.308003
   5 H :    0.299460
Sum of atomic charges:    0.0000000

LOEWDIN ATOMIC CHARGES
----------------------
   0 O :    1.570945
   1 H :   -0.808834
   2 H :   -0.760038
   3 O :    1.568505
   4 H :   -0.760475
   5 H :   -0.810102

  Mayer bond orders larger than 0.100000
B(  0-O ,  1-H ) :   0.9652 B(  0-O ,  2-H ) :   0.9452 B(  3-O ,  4-H ) :   0.9566
B(  3-O ,  5-H ) :   0.9596

E(0)                                       ...   -152.130217641
E(0)                                       ...   -152.130217641
E(CORR)(strong-pairs)                      ...     -0.576193052
E(CORR)(weak-pairs)                        ...     -0.002999118
E(CORR)(corrected)                         ...     -0.579192170
E(TOT)                                     ...   -152.709409811
E(CCSD(T))                                 ...   -152.728325936
FINAL SINGLE POINT ENERGY      -152.728325936201

DIPOLE MOMENT
-------------
                                X             Y             Z
Electronic contribution:     -0.02514       0.11654       0.09320
Nuclear contribution   :      0.22615      -0.60509      -0.46763
                        -----------------------------------------
Total Dipole Moment    :      0.20101      -0.48855      -0.37443
                        -----------------------------------------
Magnitude (a.u.)       :      0.64752
Magnitude (Debye)      :      1.64585

Rotational constants in cm-1:     6.702049     0.089111     0.088687
Rotational constants in MHz : 200922.359672  2671.471831  2658.774863

                             ****ORCA TERMINATED NORMALLY****
TOTAL RUN TIME: 0 days 0 hours 0 minutes 49 seconds 439 msec
