                         Program Version 6.0  -  CURRENT   -
|  1> ! DLPNO-CCSD(T1) NOTRAH RIJK aug-cc-pVTZ aug-cc-pVQZ/C aug-cc-pVQZ/JK verytightscf TightPNO
|  2>
|  3> %pal nprocs 4 end
|  4>
|  5> %scf maxiter 999 end
|  6> %basis auxjk "autoaux" auxc "autoaux" autoauxlmax true end
|  7>
|  8> %mdci printlevel 3 end
|  9>
| 10> *xyz 0	1
| 11> O   	-0.702196054	-0.056060256	 0.009942262
| 12> H   	-1.022193224	 0.846775782	-0.011488714
| 13> H   	 0.257521062	 0.042121496	 0.005218999
| 14> O:  	 2.220871067	 0.026716792	 0.000620476
| 15> H:  	 2.597492682	-0.411663274	 0.766744858
| 16> H:  	 2.593135384	-0.449496183	-0.744782026
| 17> *
| 18>
| 19>                          ****END OF INPUT****

CARTESIAN COORDINATES (ANGSTROEM)
---------------------------------
  O     -0.702196   -0.056060    0.009942
  H     -1.022193    0.846776   -0.011489
  H      0.257521    0.042121    0.005219
  O      2.220871    0.026717    0.000620
  H      2.597493   -0.411663    0.766745
  H      2.593135   -0.449496   -0.744782

 Total Charge           Charge          ....    0
 Multiplicity           Mult            ....    1
 Number of Electrons    NEL             ....   10
 Basis Dimension        Dim             ....  184

ORBITAL ENERGIES
----------------

  NO   OCC          E(Eh)            E(eV)
   0   2.0000     -20.568285      -559.6915
   1   2.0000      -1.352035       -36.7907
   2   2.0000      -0.713880       -19.4257
   3   2.0000      -0.585770       -15.9396
   4   2.0000      -0.510257       -13.8848
   5   0.0000       0.021790         0.5929
   6   0.0000       0.042374         1.1530
   7   0.0000       0.050284         1.3683
   8   0.0000       0.072113         1.9623
   9   0.0000       0.102741         2.7957

MULLIKEN ATOMIC CHARGES
-----------------------
   0 O :   -0.462364
   1 H :    0.201471
   2 H :    0.255493
   3 O :    0.001257
   4 H :    0.002074
   5 H :    0.002068
Sum of atomic charges:    0.0000000

LOEWDIN ATOMIC CHARGES
----------------------
   0 O :    1.069367
   1 H :   -0.502495
   2 H :   -0.506387
   3 O :   -0.045655
   4 H :   -0.007410
   5 H :   -0.007420

  Mayer bond orders larger than 0.100000
B(  0-O ,  1-H ) :   1.0320 B(  0-O ,  2-H ) :   0.9494

E(0)                                       ...    -76.060261502
E(0)                                       ...    -76.060261502
E(CORR)(strong-pairs)                      ...     -0.273618473
E(CORR)(weak-pairs)                        ...     -0.000037013
E(CORR)(corrected)                         ...     -0.273655486
E(TOT)                                     ...    -76.333916988
E(CCSD(T))                                 ...    -76.342600803
FINAL SINGLE POINT ENERGY       -76.342600803078

DIPOLE MOMENT
-------------
                                X             Y             Z
Electronic contribution:     -0.10963      -0.16974       0.00444
Nuclear contribution   :      0.53248       0.83321      -0.02177
                        -----------------------------------------
Total Dipole Moment    :      0.42284       0.66347      -0.01733
                        -----------------------------------------
Magnitude (a.u.)       :      0.78695
Magnitude (Debye)      :      2.00026

Rotational constants in cm-1:    26.676765    14.634384     9.450186
Rotational constants in MHz : 799749.293315 438727.801417 283309.437561

                             ****ORCA TERMINATED NORMALLY****
TOTAL RUN TIME: 0 days 0 hours 0 minutes 27 seconds 696 msec
