                         Program Version 6.0  -  CURRENT   -
|  1> ! DLPNO-CCSD(T1) NOTRAH RIJK aug-cc-pVTZ aug-cc-pVQZ/C aug-cc-pVQZ/JK verytightscf TightPNO
|  2>
|  3> %pal nprocs 4 end
|  4>
|  5> %scf maxiter 999 end
|  6> %basis auxjk "autoaux" auxc "autoaux" autoauxlmax true end
|  7>
|  8> %mdci printlevel 3 end
|  9>
| 10> *xyz 0 1
| 11> O:  	-0.702196054	-0.056060256	 0.009942262
| 12> H:  	-1.022193224	 0.846775782	-0.011488714
| 13> H:  	 0.257521062	 0.042121496	 0.005218999
| 14> O   	 2.220871067	 0.026716792	 0.000620476
| 15> H   	 2.597492682	-0.411663274	 0.766744858
| 16> H   	 2.593135384	-0.449496183	-0.744782026
| 17> *
| 18>
| 19>                          ****END OF INPUT****

CARTESIAN COORDINATES (ANGSTROEM)
---------------------------------
  O     -0.702196   -0.056060    0.009942
  H     -1.022193    0.846776   -0.011489
  H      0.257521    0.042121    0.005219
  O      2.220871    0.026717    0.000620
  H      2.597493   -0.411663    0.766745
  H      2.593135   -0.449496   -0.744782

 Total Charge           Charge          ....    0
 Multiplicity           Mult            ....    1
 Number of Electrons    NEL             ....   10
 Basis Dimension        Dim             ....  184

ORBITAL ENERGIES
----------------

  NO   OCC          E(Eh)            E(eV)
   0   2.0000     -20.567693      -559.6754
   1   2.0000      -1.352644       -36.8073
   2   2.0000      -0.715323       -19.4649
   3   2.0000      -0.585487       -15.9319
   4   2.0000      -0.510307       -13.8861
   5   0.0000       0.026685         0.7261
   6   0.0000       0.045382         1.2349
   7   0.0000       0.047532         1.2934
   8   0.0000       0.068420         1.8618
   9   0.0000       0.124888         3.3984

MULLIKEN ATOMIC CHARGES
-----------------------
   0 O :   -0.001148
   1 H :    0.001873
   2 H :    0.024022
   3 O :   -0.436179
   4 H :    0.205703
   5 H :    0.205729
Sum of atomic charges:    0.0000000

LOEWDIN ATOMIC CHARGES
----------------------
   0 O :   -0.019096
   1 H :   -0.005412
   2 H :   -0.159059
   3 O :    1.130118
   4 H :   -0.473292
   5 H :   -0.473259

  Mayer bond orders larger than 0.100000
B(  3-O ,  4-H ) :   1.0141 B(  3-O ,  5-H ) :   1.0141

E(0)                                       ...    -76.060471743
E(0)                                       ...    -76.060471743
E(CORR)(strong-pairs)                      ...     -0.273543914
E(CORR)(weak-pairs)                        ...     -0.000041097
E(CORR)(corrected)                         ...     -0.273585011
E(TOT)                                     ...    -76.334056754
E(CCSD(T))                                 ...    -76.342730181
FINAL SINGLE POINT ENERGY       -76.342730180864

DIPOLE MOMENT
-------------
                                X             Y             Z
Electronic contribution:     -0.12696       0.15553      -0.00352
Nuclear contribution   :      0.62334      -0.76127       0.01725
                        -----------------------------------------
Total Dipole Moment    :      0.49639      -0.60574       0.01372
                        -----------------------------------------
Magnitude (a.u.)       :      0.78327
Magnitude (Debye)      :      1.99091

Rotational constants in cm-1:    26.945200    14.630495     9.482021
Rotational constants in MHz : 807796.770105 438611.199658 284263.835767

                             ****ORCA TERMINATED NORMALLY****
TOTAL RUN TIME: 0 days 0 hours 0 minutes 28 seconds 188 msec
