                         Program Version 5.0  -  CURRENT   -
|  1> ! DLPNO-CCSD(T1) aug-cc-pVTZ DEFGRID3 RIJCOSX def2/J aug-cc-pVQZ/C verytightscf TightPNO
|  2>
|  3> %pal nprocs 4 end
|  4> %maxcore 4000
|  5> %scf maxiter 999 end
|  6> %basis auxj "autoaux" auxc "autoaux" autoauxlmax true end
|  7> %mdci TCutPNO 1e-7 printlevel 3 end
|  8>
|  9> *xyz 0 1
| 10> O     3.364853284     1.252522284    -0.119963272
| 11> H     2.731853532     1.891821037    -0.517486897
| 12> H     4.212012919     1.443946099    -0.529713339
| 13> *
| 14>
| 15>                          ****END OF INPUT****

CARTESIAN COORDINATES (ANGSTROEM)
---------------------------------
  O      3.364853    1.252522   -0.119963
  H      2.731854    1.891821   -0.517487
  H      4.212013    1.443946   -0.529713

 Total Charge           Charge          ....    0
 Multiplicity           Mult            ....    1
 Number of Electrons    NEL             ....   10
 Basis Dimension        Dim             ....   92

ORBITAL ENERGIES
----------------

  NO   OCC          E(Eh)            E(eV)
   0   2.0000     -20.569389      -559.7215
   1   2.0000      -1.345667       -36.6175
   2   2.0000      -0.711559       -19.3625
   3   2.0000      -0.580361       -15.7924
   4   2.0000      -0.508966       -13.8497
   5   0.0000       0.029311         0.7976
   6   0.0000       0.047571         1.2945
   7   0.0000       0.136013         3.7011
   8   0.0000       0.159086         4.3290
   9   0.0000       0.174418         4.7462

MULLIKEN ATOMIC CHARGES
-----------------------
   0 O :   -0.460509
   1 H :    0.240573
   2 H :    0.219936
Sum of atomic charges:   -0.0000000

LOEWDIN ATOMIC CHARGES
----------------------
   0 O :    0.999410
   1 H :   -0.475229
   2 H :   -0.524181

  Mayer bond orders larger than 0.100000
B(  0-O ,  1-H ) :   0.9831 B(  0-O ,  2-H ) :   0.9999

E(0)                                       ...    -76.059006383
E(0)                                       ...    -76.059006383
E(CORR)(strong-pairs)                      ...     -0.274010802
E(CORR)(weak-pairs)                        ...     -0.000032754
E(CORR)(corrected)                         ...     -0.274043557
E(TOT)                                     ...    -76.333049939
E(CCSD(T))                                 ...    -76.341811837
FINAL SINGLE POINT ENERGY       -76.341811837281

DIPOLE MOMENT
-------------
                                X             Y             Z
Electronic contribution:     -0.03289      -0.14337       0.13812
Nuclear contribution   :      0.17826       0.69146      -0.67194
                        -----------------------------------------
Total Dipole Moment    :      0.14536       0.54809      -0.53382
                        -----------------------------------------
Magnitude (a.u.)       :      0.77878
Magnitude (Debye)      :      1.97950

Rotational constants in cm-1:    27.175489    13.976283     9.229550
Rotational constants in MHz : 814700.658335 418998.419390 276694.936619

                             ****ORCA TERMINATED NORMALLY****
TOTAL RUN TIME: 0 days 0 hours 0 minutes 38 seconds 178 msec
