                         Program Version 5.0  -  CURRENT   -
|  1> ! DLPNO-CCSD(T1) aug-cc-pVTZ DEFGRID3 RIJCOSX def2/J aug-cc-pVQZ/C verytightscf TightPNO
|  2>
|  3> %pal nprocs 4 end
|  4> %maxcore 4000
|  5> %scf maxiter 999 end
|  6> %basis auxj "autoaux" auxc "autoaux" autoauxlmax true end
|  7> %mdci TCutPNO 1e-7 printlevel 3 end
|  8>
|  9> *xyz 0 1
| 10> O    -1.753042425     0.416462959     0.356105280
| 11> H    -1.120933301    -0.183098298     0.812596940
| 12> H    -2.593310567    -0.048459739     0.359102074
| 13> *
| 14>
| 15>                          ****END OF INPUT****

CARTESIAN COORDINATES (ANGSTROEM)
---------------------------------
  O     -1.753042    0.416463    0.356105
  H     -1.120933   -0.183098    0.812597
  H     -2.593311   -0.048460    0.359102

 Total Charge           Charge          ....    0
 Multiplicity           Mult            ....    1
 Number of Electrons    NEL             ....   10
 Basis Dimension        Dim             ....   92

ORBITAL ENERGIES
----------------

  NO   OCC          E(Eh)            E(eV)
   0   2.0000     -20.569358      -559.7207
   1   2.0000      -1.345588       -36.6153
   2   2.0000      -0.711566       -19.3627
   3   2.0000      -0.580375       -15.7928
   4   2.0000      -0.508884       -13.8474
   5   0.0000       0.029305         0.7974
   6   0.0000       0.047571         1.2945
   7   0.0000       0.136006         3.7009
   8   0.0000       0.159086         4.3290
   9   0.0000       0.174439         4.7467

MULLIKEN ATOMIC CHARGES
-----------------------
   0 O :   -0.460695
   1 H :    0.238770
   2 H :    0.221925
Sum of atomic charges:    0.0000000

LOEWDIN ATOMIC CHARGES
----------------------
   0 O :    0.999350
   1 H :   -0.475248
   2 H :   -0.524102

  Mayer bond orders larger than 0.100000
B(  0-O ,  1-H ) :   0.9851 B(  0-O ,  2-H ) :   0.9971

E(0)                                       ...    -76.059006190
E(0)                                       ...    -76.059006190
E(CORR)(strong-pairs)                      ...     -0.274010178
E(CORR)(weak-pairs)                        ...     -0.000032753
E(CORR)(corrected)                         ...     -0.274042931
E(TOT)                                     ...    -76.333049120
E(CCSD(T))                                 ...    -76.341811015
FINAL SINGLE POINT ENERGY       -76.341811015410

DIPOLE MOMENT
-------------
                                X             Y             Z
Electronic contribution:      0.03190       0.18244      -0.07989
Nuclear contribution   :     -0.17326      -0.88603       0.38246
                        -----------------------------------------
Total Dipole Moment    :     -0.14136      -0.70360       0.30257
                        -----------------------------------------
Magnitude (a.u.)       :      0.77883
Magnitude (Debye)      :      1.97964

Rotational constants in cm-1:    27.176858    13.975891     9.229537
Rotational constants in MHz : 814741.708391 418986.668774 276694.546894

                             ****ORCA TERMINATED NORMALLY****
TOTAL RUN TIME: 0 days 0 hours 0 minutes 35 seconds 379 msec
