                         Program Version 5.0  -  CURRENT   -
|  1> ! DLPNO-CCSD(T1) aug-cc-pVTZ DEFGRID3 RIJCOSX def2/J aug-cc-pVQZ/C verytightscf TightPNO
|  2>
|  3> %pal nprocs 4 end
|  4> %maxcore 4000
|  5> %scf maxiter 999 end
|  6> %basis auxj "autoaux" auxc "autoaux" autoauxlmax true end
|  7> %mdci TCutPNO 1e-7 printlevel 3 end
|  8>
|  9> *xyz 0 1
| 10> O     0.012631031    -1.241255898     1.573836894
| 11> H     0.908618001    -1.252949881     1.168524322
| 12> H     0.168950409    -1.135399007     2.515952529
| 13> *
| 14>
| 15>                          ****END OF INPUT****

CARTESIAN COORDINATES (ANGSTROEM)
---------------------------------
  O      0.012631   -1.241256    1.573837
  H      0.908618   -1.252950    1.168524
  H      0.168950   -1.135399    2.515953

 Total Charge           Charge          ....    0
 Multiplicity           Mult            ....    1
 Number of Electrons    NEL             ....   10
 Basis Dimension        Dim             ....   92

ORBITAL ENERGIES
----------------

  NO   OCC          E(Eh)            E(eV)
   0   2.0000     -20.569685      -559.7296
   1   2.0000      -1.345856       -36.6226
   2   2.0000      -0.710523       -19.3343
   3   2.0000      -0.581323       -15.8186
   4   2.0000      -0.509073       -13.8526
   5   0.0000       0.029272         0.7965
   6   0.0000       0.047602         1.2953
   7   0.0000       0.135932         3.6989
   8   0.0000       0.159177         4.3314
   9   0.0000       0.174557         4.7499

MULLIKEN ATOMIC CHARGES
-----------------------
   0 O :   -0.463265
   1 H :    0.240230
   2 H :    0.223035
Sum of atomic charges:   -0.0000000

LOEWDIN ATOMIC CHARGES
----------------------
   0 O :    0.999253
   1 H :   -0.475802
   2 H :   -0.523452

  Mayer bond orders larger than 0.100000
B(  0-O ,  1-H ) :   0.9835 B(  0-O ,  2-H ) :   0.9961

E(0)                                       ...    -76.058993790
E(0)                                       ...    -76.058993790
E(CORR)(strong-pairs)                      ...     -0.274059094
E(CORR)(weak-pairs)                        ...     -0.000032810
E(CORR)(corrected)                         ...     -0.274091904
E(TOT)                                     ...    -76.333085694
E(CCSD(T))                                 ...    -76.341852980
FINAL SINGLE POINT ENERGY       -76.341852979699

DIPOLE MOMENT
-------------
                                X             Y             Z
Electronic contribution:     -0.18313      -0.01602      -0.08889
Nuclear contribution   :      0.87590       0.07838       0.44681
                        -----------------------------------------
Total Dipole Moment    :      0.69276       0.06236       0.35792
                        -----------------------------------------
Magnitude (a.u.)       :      0.78225
Magnitude (Debye)      :      1.98832

Rotational constants in cm-1:    26.850648    14.065428     9.230256
Rotational constants in MHz : 804962.171129 421670.928251 276716.115095

                             ****ORCA TERMINATED NORMALLY****
TOTAL RUN TIME: 0 days 0 hours 0 minutes 37 seconds 579 msec
