                         Program Version 5.0  -  CURRENT   -
|  1> ! DLPNO-CCSD(T1) aug-cc-pVQZ DEFGRID3 RIJCOSX def2/J aug-cc-pV5Z/C verytightscf TightPNO
|  2>
|  3> %pal nprocs 4 end
|  4> %maxcore 4000
|  5> %scf maxiter 999 end
|  6> %basis auxj "autoaux" auxc "autoaux" autoauxlmax true end
|  7> %mdci TCutPNO 1e-7 printlevel 3 end
|  8>
|  9> *xyz 0 1
| 10> O    -1.753042425     0.416462959     0.356105280
| 11> H    -1.120933301    -0.183098298     0.812596940
| 12> H    -2.593310567    -0.048459739     0.359102074
| 13> *
| 14>
| 15>                          ****END OF INPUT****

CARTESIAN COORDINATES (ANGSTROEM)
---------------------------------
  O     -1.753042    0.416463    0.356105
  H     -1.120933   -0.183098    0.812597
  H     -2.593311   -0.048460    0.359102

 Total Charge           Charge          ....    0
 Multiplicity           Mult            ....    1
 Number of Electrons    NEL             ....   10
 Basis Dimension        Dim             ....  172

ORBITAL ENERGIES
----------------

  NO   OCC          E(Eh)            E(eV)
   0   2.0000     -20.566870      -559.6530
   1   2.0000      -1.344880       -36.5960
   2   2.0000      -0.711550       -19.3623
   3   2.0000      -0.580372       -15.7927
   4   2.0000      -0.509045       -13.8518
   5   0.0000       0.026831         0.7301
   6   0.0000       0.042980         1.1695
   7   0.0000       0.114241         3.1087
   8   0.0000       0.133762         3.6398
   9   0.0000       0.150517         4.0958

MULLIKEN ATOMIC CHARGES
-----------------------
   0 O :   -0.597762
   1 H :    0.305094
   2 H :    0.292668
Sum of atomic charges:    0.0000000

LOEWDIN ATOMIC CHARGES
----------------------
   0 O :    1.568578
   1 H :   -0.758871
   2 H :   -0.809707

  Mayer bond orders larger than 0.100000
B(  0-O ,  1-H ) :   0.9564 B(  0-O ,  2-H ) :   0.9692

E(0)                                       ...    -76.064324354
E(0)                                       ...    -76.064324354
E(CORR)(strong-pairs)                      ...     -0.289033741
E(CORR)(weak-pairs)                        ...     -0.000142495
E(CORR)(corrected)                         ...     -0.289176236
E(TOT)                                     ...    -76.353500590
E(CCSD(T))                                 ...    -76.363005629
FINAL SINGLE POINT ENERGY       -76.363005628960

DIPOLE MOMENT
-------------
                                X             Y             Z
Electronic contribution:      0.03198       0.18324      -0.07999
Nuclear contribution   :     -0.17326      -0.88603       0.38246
                        -----------------------------------------
Total Dipole Moment    :     -0.14128      -0.70280       0.30247
                        -----------------------------------------
Magnitude (a.u.)       :      0.77806
Magnitude (Debye)      :      1.97767

Rotational constants in cm-1:    27.176858    13.975891     9.229537
Rotational constants in MHz : 814741.708391 418986.668774 276694.546894

                             ****ORCA TERMINATED NORMALLY****
TOTAL RUN TIME: 0 days 0 hours 2 minutes 45 seconds 471 msec
