                         Program Version 5.0  -  CURRENT   -
|  1> ! DLPNO-CCSD(T1) aug-cc-pVQZ DEFGRID3 RIJCOSX def2/J aug-cc-pV5Z/C verytightscf TightPNO
|  2>
|  3> %pal nprocs 4 end
|  4> %maxcore 4000
|  5> %scf maxiter 999 end
|  6> %basis auxj "autoaux" auxc "autoaux" autoauxlmax true end
|  7> %mdci TCutPNO 1e-7 printlevel 3 end
|  8>
|  9> *xyz 0 1
| 10> O     2.482542995    -1.248988714     0.449488905
| 11> H     2.616828786    -1.798226083    -0.326968465
| 12> H     2.828107886    -0.362220961     0.204648083
| 13> *
| 14>
| 15>                          ****END OF INPUT****

CARTESIAN COORDINATES (ANGSTROEM)
---------------------------------
  O      2.482543   -1.248989    0.449489
  H      2.616829   -1.798226   -0.326968
  H      2.828108   -0.362221    0.204648

 Total Charge           Charge          ....    0
 Multiplicity           Mult            ....    1
 Number of Electrons    NEL             ....   10
 Basis Dimension        Dim             ....  172

ORBITAL ENERGIES
----------------

  NO   OCC          E(Eh)            E(eV)
   0   2.0000     -20.566779      -559.6505
   1   2.0000      -1.345075       -36.6014
   2   2.0000      -0.711657       -19.3652
   3   2.0000      -0.580469       -15.7954
   4   2.0000      -0.509068       -13.8524
   5   0.0000       0.026833         0.7302
   6   0.0000       0.042984         1.1696
   7   0.0000       0.114240         3.1086
   8   0.0000       0.133748         3.6395
   9   0.0000       0.150534         4.0962

MULLIKEN ATOMIC CHARGES
-----------------------
   0 O :   -0.594860
   1 H :    0.290635
   2 H :    0.304226
Sum of atomic charges:   -0.0000000

LOEWDIN ATOMIC CHARGES
----------------------
   0 O :    1.569369
   1 H :   -0.808934
   2 H :   -0.760435

  Mayer bond orders larger than 0.100000
B(  0-O ,  1-H ) :   0.9713 B(  0-O ,  2-H ) :   0.9571

E(0)                                       ...    -76.064388426
E(0)                                       ...    -76.064388426
E(CORR)(strong-pairs)                      ...     -0.289012808
E(CORR)(weak-pairs)                        ...     -0.000142502
E(CORR)(corrected)                         ...     -0.289155310
E(TOT)                                     ...    -76.353543735
E(CCSD(T))                                 ...    -76.363045275
FINAL SINGLE POINT ENERGY       -76.363045274649

DIPOLE MOMENT
-------------
                                X             Y             Z
Electronic contribution:     -0.08276      -0.06163       0.17422
Nuclear contribution   :      0.39941       0.28095      -0.85009
                        -----------------------------------------
Total Dipole Moment    :      0.31665       0.21932      -0.67587
                        -----------------------------------------
Magnitude (a.u.)       :      0.77793
Magnitude (Debye)      :      1.97734

Rotational constants in cm-1:    27.180741    13.990221     9.236233
Rotational constants in MHz : 814858.126026 419416.280498 276895.285639

                             ****ORCA TERMINATED NORMALLY****
TOTAL RUN TIME: 0 days 0 hours 2 minutes 47 seconds 234 msec
