                         Program Version 5.0  -  CURRENT   -
|  1> ! DLPNO-CCSD(T1) aug-cc-pVQZ DEFGRID3 RIJCOSX def2/J aug-cc-pV5Z/C verytightscf TightPNO
|  2>
|  3> %pal nprocs 4 end
|  4> %maxcore 4000
|  5> %scf maxiter 999 end
|  6> %basis auxj "autoaux" auxc "autoaux" autoauxlmax true end
|  7> %mdci TCutPNO 1e-6 printlevel 3 end
|  8>
|  9> *xyz 0 1
| 10> O    -0.845377446     1.902266646    -1.724481185
| 11> H    -1.198971324     1.335278306    -1.003913817
| 12> H    -0.953209570     1.388839038    -2.529056860
| 13> *
| 14>
| 15>                          ****END OF INPUT****

CARTESIAN COORDINATES (ANGSTROEM)
---------------------------------
  O     -0.845377    1.902267   -1.724481
  H     -1.198971    1.335278   -1.003914
  H     -0.953210    1.388839   -2.529057

 Total Charge           Charge          ....    0
 Multiplicity           Mult            ....    1
 Number of Electrons    NEL             ....   10
 Basis Dimension        Dim             ....  172

ORBITAL ENERGIES
----------------

  NO   OCC          E(Eh)            E(eV)
   0   2.0000     -20.566870      -559.6530
   1   2.0000      -1.345052       -36.6007
   2   2.0000      -0.711719       -19.3668
   3   2.0000      -0.580500       -15.7962
   4   2.0000      -0.509047       -13.8519
   5   0.0000       0.026835         0.7302
   6   0.0000       0.042982         1.1696
   7   0.0000       0.114241         3.1086
   8   0.0000       0.133754         3.6396
   9   0.0000       0.150536         4.0963

MULLIKEN ATOMIC CHARGES
-----------------------
   0 O :   -0.596828
   1 H :    0.304233
   2 H :    0.292595
Sum of atomic charges:    0.0000000

LOEWDIN ATOMIC CHARGES
----------------------
   0 O :    1.569407
   1 H :   -0.760445
   2 H :   -0.808961

  Mayer bond orders larger than 0.100000
B(  0-O ,  1-H ) :   0.9571 B(  0-O ,  2-H ) :   0.9696

E(0)                                       ...    -76.064388305
E(0)                                       ...    -76.064388305
E(CORR)(strong-pairs)                      ...     -0.288116428
E(CORR)(weak-pairs)                        ...     -0.001451606
E(CORR)(corrected)                         ...     -0.289568035
E(TOT)                                     ...    -76.353956339
E(CCSD(T))                                 ...    -76.363418892
FINAL SINGLE POINT ENERGY       -76.363418891844

DIPOLE MOMENT
-------------
                                X             Y             Z
Electronic contribution:      0.07986       0.18553       0.01070
Nuclear contribution   :     -0.38407      -0.89930      -0.06993
                        -----------------------------------------
Total Dipole Moment    :     -0.30421      -0.71377      -0.05923
                        -----------------------------------------
Magnitude (a.u.)       :      0.77815
Magnitude (Debye)      :      1.97790

Rotational constants in cm-1:    27.180034    13.990434     9.236244
Rotational constants in MHz : 814836.927234 419422.665353 276895.620582

                             ****ORCA TERMINATED NORMALLY****
TOTAL RUN TIME: 0 days 0 hours 0 minutes 42 seconds 907 msec
