                         Program Version 5.0  -  CURRENT   -
|  1> ! DLPNO-CCSD(T1) aug-cc-pVQZ DEFGRID3 RIJCOSX def2/J aug-cc-pV5Z/C verytightscf TightPNO
|  2>
|  3> %pal nprocs 4 end
|  4> %maxcore 4000
|  5> %scf maxiter 999 end
|  6> %basis auxj "autoaux" auxc "autoaux" autoauxlmax true end
|  7> %mdci TCutPNO 1e-6 printlevel 3 end
|  8>
|  9> *xyz 0 1
| 10> O     1.597560181     2.978636709    -1.236245995
| 11> H     1.417961949     3.808511891    -0.786488687
| 12> H     0.711446199     2.593888593    -1.420550970
| 13> *
| 14>
| 15>                          ****END OF INPUT****

CARTESIAN COORDINATES (ANGSTROEM)
---------------------------------
  O      1.597560    2.978637   -1.236246
  H      1.417962    3.808512   -0.786489
  H      0.711446    2.593889   -1.420551

 Total Charge           Charge          ....    0
 Multiplicity           Mult            ....    1
 Number of Electrons    NEL             ....   10
 Basis Dimension        Dim             ....  172

ORBITAL ENERGIES
----------------

  NO   OCC          E(Eh)            E(eV)
   0   2.0000     -20.567143      -559.6604
   1   2.0000      -1.345135       -36.6030
   2   2.0000      -0.710469       -19.3328
   3   2.0000      -0.581342       -15.8191
   4   2.0000      -0.509210       -13.8563
   5   0.0000       0.026805         0.7294
   6   0.0000       0.043007         1.1703
   7   0.0000       0.114165         3.1066
   8   0.0000       0.133858         3.6425
   9   0.0000       0.150615         4.0985

MULLIKEN ATOMIC CHARGES
-----------------------
   0 O :   -0.600143
   1 H :    0.293743
   2 H :    0.306400
Sum of atomic charges:    0.0000000

LOEWDIN ATOMIC CHARGES
----------------------
   0 O :    1.568444
   1 H :   -0.808924
   2 H :   -0.759520

  Mayer bond orders larger than 0.100000
B(  0-O ,  1-H ) :   0.9667 B(  0-O ,  2-H ) :   0.9532

E(0)                                       ...    -76.064310735
E(0)                                       ...    -76.064310735
E(CORR)(strong-pairs)                      ...     -0.288185368
E(CORR)(weak-pairs)                        ...     -0.001446114
E(CORR)(corrected)                         ...     -0.289631482
E(TOT)                                     ...    -76.353942217
E(CCSD(T))                                 ...    -76.363413384
FINAL SINGLE POINT ENERGY       -76.363413384489

DIPOLE MOMENT
-------------
                                X             Y             Z
Electronic contribution:      0.18591      -0.07402      -0.04421
Nuclear contribution   :     -0.88706       0.37051       0.22095
                        -----------------------------------------
Total Dipole Moment    :     -0.70115       0.29649       0.17675
                        -----------------------------------------
Magnitude (a.u.)       :      0.78151
Magnitude (Debye)      :      1.98644

Rotational constants in cm-1:    26.851143    14.065316     9.230266
Rotational constants in MHz : 804977.023675 421667.579660 276716.428159

                             ****ORCA TERMINATED NORMALLY****
TOTAL RUN TIME: 0 days 0 hours 0 minutes 43 seconds 139 msec
