                         Program Version 5.0  -  CURRENT   -
|  1> ! DLPNO-CCSD(T1) aug-cc-pVQZ DEFGRID3 RIJCOSX def2/J aug-cc-pV5Z/C verytightscf TightPNO
|  2>
|  3> %pal nprocs 4 end
|  4> %maxcore 4000
|  5> %scf maxiter 999 end
|  6> %basis auxj "autoaux" auxc "autoaux" autoauxlmax true end
|  7> %mdci TCutPNO 1e-6 printlevel 3 end
|  8>
|  9> *xyz 0 1
| 10> O     0.012631031    -1.241255898     1.573836894
| 11> H     0.908618001    -1.252949881     1.168524322
| 12> H     0.168950409    -1.135399007     2.515952529
| 13> *
| 14>
| 15>                          ****END OF INPUT****

CARTESIAN COORDINATES (ANGSTROEM)
---------------------------------
  O      0.012631   -1.241256    1.573837
  H      0.908618   -1.252950    1.168524
  H      0.168950   -1.135399    2.515953

 Total Charge           Charge          ....    0
 Multiplicity           Mult            ....    1
 Number of Electrons    NEL             ....   10
 Basis Dimension        Dim             ....  172

ORBITAL ENERGIES
----------------

  NO   OCC          E(Eh)            E(eV)
   0   2.0000     -20.567199      -559.6619
   1   2.0000      -1.345118       -36.6025
   2   2.0000      -0.710513       -19.3340
   3   2.0000      -0.581338       -15.8190
   4   2.0000      -0.509148       -13.8546
   5   0.0000       0.026800         0.7293
   6   0.0000       0.043006         1.1703
   7   0.0000       0.114172         3.1068
   8   0.0000       0.133855         3.6424
   9   0.0000       0.150610         4.0983

MULLIKEN ATOMIC CHARGES
-----------------------
   0 O :   -0.598116
   1 H :    0.305463
   2 H :    0.292652
Sum of atomic charges:   -0.0000000

LOEWDIN ATOMIC CHARGES
----------------------
   0 O :    1.568537
   1 H :   -0.759582
   2 H :   -0.808954

  Mayer bond orders larger than 0.100000
B(  0-O ,  1-H ) :   0.9563 B(  0-O ,  2-H ) :   0.9703

E(0)                                       ...    -76.064310768
E(0)                                       ...    -76.064310768
E(CORR)(strong-pairs)                      ...     -0.288178798
E(CORR)(weak-pairs)                        ...     -0.001458698
E(CORR)(corrected)                         ...     -0.289637497
E(TOT)                                     ...    -76.353948264
E(CCSD(T))                                 ...    -76.363419773
FINAL SINGLE POINT ENERGY       -76.363419772829

DIPOLE MOMENT
-------------
                                X             Y             Z
Electronic contribution:     -0.18375      -0.01619      -0.08938
Nuclear contribution   :      0.87590       0.07838       0.44681
                        -----------------------------------------
Total Dipole Moment    :      0.69215       0.06219       0.35743
                        -----------------------------------------
Magnitude (a.u.)       :      0.78147
Magnitude (Debye)      :      1.98634

Rotational constants in cm-1:    26.850648    14.065428     9.230256
Rotational constants in MHz : 804962.171129 421670.928251 276716.115095

                             ****ORCA TERMINATED NORMALLY****
TOTAL RUN TIME: 0 days 0 hours 0 minutes 41 seconds 178 msec
