                         Program Version 5.0  -  CURRENT   -
|  1> ! DLPNO-CCSD(T1) aug-cc-pVQZ DEFGRID3 RIJCOSX def2/J aug-cc-pV5Z/C verytightscf TightPNO
|  2>
|  3> %pal nprocs 4 end
|  4> %maxcore 4000
|  5> %scf maxiter 999 end
|  6> %basis auxj "autoaux" auxc "autoaux" autoauxlmax true end
|  7> %mdci TCutPNO 1e-6 printlevel 3 end
|  8>
|  9> *xyz 0 1
| 10> O     3.364853284     1.252522284    -0.119963272
| 11> H     2.731853532     1.891821037    -0.517486897
| 12> H     4.212012919     1.443946099    -0.529713339
| 13> *
| 14>
| 15>                          ****END OF INPUT****

CARTESIAN COORDINATES (ANGSTROEM)
---------------------------------
  O      3.364853    1.252522   -0.119963
  H      2.731854    1.891821   -0.517487
  H      4.212013    1.443946   -0.529713

 Total Charge           Charge          ....    0
 Multiplicity           Mult            ....    1
 Number of Electrons    NEL             ....   10
 Basis Dimension        Dim             ....  172

ORBITAL ENERGIES
----------------

  NO   OCC          E(Eh)            E(eV)
   0   2.0000     -20.566895      -559.6537
   1   2.0000      -1.344887       -36.5962
   2   2.0000      -0.711562       -19.3626
   3   2.0000      -0.580401       -15.7935
   4   2.0000      -0.509049       -13.8519
   5   0.0000       0.026833         0.7301
   6   0.0000       0.042979         1.1695
   7   0.0000       0.114240         3.1086
   8   0.0000       0.133767         3.6400
   9   0.0000       0.150519         4.0958

MULLIKEN ATOMIC CHARGES
-----------------------
   0 O :   -0.597864
   1 H :    0.305479
   2 H :    0.292384
Sum of atomic charges:    0.0000000

LOEWDIN ATOMIC CHARGES
----------------------
   0 O :    1.568576
   1 H :   -0.758897
   2 H :   -0.809680

  Mayer bond orders larger than 0.100000
B(  0-O ,  1-H ) :   0.9548 B(  0-O ,  2-H ) :   0.9695

E(0)                                       ...    -76.064324479
E(0)                                       ...    -76.064324479
E(CORR)(strong-pairs)                      ...     -0.288137841
E(CORR)(weak-pairs)                        ...     -0.001451627
E(CORR)(corrected)                         ...     -0.289589468
E(TOT)                                     ...    -76.353913947
E(CCSD(T))                                 ...    -76.363379880
FINAL SINGLE POINT ENERGY       -76.363379879799

DIPOLE MOMENT
-------------
                                X             Y             Z
Electronic contribution:     -0.03309      -0.14375       0.13866
Nuclear contribution   :      0.17826       0.69146      -0.67194
                        -----------------------------------------
Total Dipole Moment    :      0.14517       0.54771      -0.53328
                        -----------------------------------------
Magnitude (a.u.)       :      0.77811
Magnitude (Debye)      :      1.97779

Rotational constants in cm-1:    27.175489    13.976283     9.229550
Rotational constants in MHz : 814700.658335 418998.419390 276694.936619

                             ****ORCA TERMINATED NORMALLY****
TOTAL RUN TIME: 0 days 0 hours 0 minutes 43 seconds 138 msec
