                         Program Version 6.0  -  CURRENT   -
|  1> ! DLPNO-CCSD RIJCOSX def2-TZVP(-f) def2/J def2-tzvp/C verytightscf LED
|  2>
|  3> %pal nprocs 16 end
|  4> %maxcore 8000
|  5> %scf maxiter 999 end
|  6> %mdci TCutPairs 1e-5 printlevel 3
|  7>       LocMet FB LocTol 1.0e-6 LocRandom 1
|  8>       HFFragInter {1 1} {2 2}
|  9>       end
| 10>
| 11> *xyz 0 1
| 12> C(1)       3.959814    2.561396    5.671998
| 13> C(1)       5.124688    2.711507    6.307297
| 14> H(1)       5.910980    2.624495    5.781307
| 15> C(1)       5.318750    3.001413    7.756160
| 16> H(1)       5.764958    2.338040    8.269299
| 17> C(1)       4.922108    4.116628    8.413564
| 18> C(1)       4.187615    5.217888    7.728235
| 19> H(1)       4.592983    6.076768    7.705738
| 20> C(1)       2.996500    5.073177    7.144286
| 21> H(1)       2.598240    5.854076    6.778112
| 22> C(1)       2.240560    3.812194    7.014673
| 23> H(1)       1.374630    3.783577    7.404357
| 24> C(1)       2.667365    2.709888    6.398299
| 25> H(1)       2.096330    1.951116    6.424481
| 26> C(1)       3.855528    2.189510    4.180727
| 27> C(1)       3.206858    3.365610    3.443570
| 28> H(1)       2.312363    3.542338    3.829289
| 29> H(1)       3.759862    4.177210    3.568431
| 30> C(1)       3.066693    3.071653    1.950331
| 31> H(1)       2.641663    3.853971    1.494983
| 32> C(1)       4.418385    2.801990    1.331483
| 33> H(1)       4.992310    3.603436    1.423104
| 34> H(1)       4.310148    2.608715    0.366596
| 35> C(1)       5.082741    1.613149    2.021845
| 36> H(1)       5.984031    1.450291    1.620378
| 37> C(1)       5.232054    1.929266    3.531282
| 38> H(1)       5.671955    1.167507    3.985505
| 39> H(1)       5.806469    2.727454    3.645513
| 40> C(1)       2.984490    0.916534    3.972879
| 41> H(1)       3.414105    0.144085    4.418806
| 42> H(1)       2.094116    1.053032    4.383598
| 43> C(1)       2.820046    0.619609    2.471962
| 44> H(1)       2.244245   -0.189108    2.351826
| 45> C(1)       2.172758    1.820210    1.768524
| 46> H(1)       1.276608    1.990313    2.153342
| 47> H(1)       2.063503    1.624174    0.804312
| 48> C(1)       4.205273    0.362816    1.851089
| 49> H(1)       4.633831   -0.410619    2.296313
| 50> H(1)       4.107182    0.151182    0.888958
| 51> C(1)       5.254459    4.351654    9.886415
| 52> C(1)       3.942843    4.629858   10.626355
| 53> H(1)       3.337150    3.853519   10.523739
| 54> H(1)       3.499931    5.418498   10.223876
| 55> C(1)       4.188483    4.891347   12.124403
| 56> H(1)       3.319013    5.074687   12.583126
| 57> C(1)       4.866138    3.667012   12.762937
| 58> H(1)       5.027716    3.836876   13.724759
| 59> H(1)       4.275091    2.876862   12.682734
| 60> C(1)       6.198220    3.393588   12.052721
| 61> H(1)       6.631672    2.589020   12.458659
| 62> C(1)       5.931826    3.131816   10.562519
| 63> H(1)       5.347601    2.338169   10.468170
| 64> H(1)       6.788160    2.937070   10.105455
| 65> C(1)       6.192447    5.559403   10.079583
| 66> H(1)       5.786533    6.362172    9.666193
| 67> H(1)       7.054843    5.383533    9.626344
| 68> C(1)       6.443690    5.823950   11.579544
| 69> H(1)       7.040792    6.620087   11.677689
| 70> C(1)       5.124238    6.098831   12.281970
| 71> H(1)       4.699544    6.903322   11.891414
| 72> H(1)       5.287472    6.271327   13.243060
| 73> C(1)       7.120822    4.604047   12.215462
| 74> H(1)       7.988732    4.429725   11.772262
| 75> H(1)       7.289890    4.773633   13.176074
| 76> C(2)       8.845181    5.786946   22.449799
| 77> C(2)       7.680306    5.937057   21.814500
| 78> H(2)       6.894014    5.850045   22.340490
| 79> C(2)       7.486244    6.226963   20.365637
| 80> H(2)       7.040037    5.563590   19.852498
| 81> C(2)       7.882887    7.342178   19.708233
| 82> C(2)       8.617380    8.443438   20.393561
| 83> H(2)       8.212011    9.302318   20.416059
| 84> C(2)       9.808495    8.298727   20.977511
| 85> H(2)      10.206755    9.079626   21.343684
| 86> C(2)      10.564435    7.037744   21.107124
| 87> H(2)      11.430364    7.009127   20.717440
| 88> C(2)      10.137630    5.935438   21.723497
| 89> H(2)      10.708664    5.176666   21.697316
| 90> C(2)       8.949467    5.415060   23.941070
| 91> C(2)       9.598136    6.591160   24.678227
| 92> H(2)      10.492631    6.767888   24.292508
| 93> H(2)       9.045132    7.402760   24.553366
| 94> C(2)       9.738301    6.297203   26.171466
| 95> H(2)      10.163332    7.079521   26.626814
| 96> C(2)       8.386610    6.027540   26.790314
| 97> H(2)       7.812684    6.828986   26.698693
| 98> H(2)       8.494847    5.834265   27.755201
| 99> C(2)       7.722253    4.838699   26.099952
|100> H(2)       6.820963    4.675841   26.501419
|101> C(2)       7.572941    5.154816   24.590515
|102> H(2)       7.133040    4.393057   24.136291
|103> H(2)       6.998526    5.953004   24.476284
|104> C(2)       9.820505    4.142084   24.148918
|105> H(2)       9.390889    3.369635   23.702991
|106> H(2)      10.710879    4.278582   23.738199
|107> C(2)       9.984949    3.845159   25.649835
|108> H(2)      10.560750    3.036442   25.769971
|109> C(2)      10.632236    5.045760   26.353273
|110> H(2)      11.528387    5.215863   25.968455
|111> H(2)      10.741492    4.849724   27.317485
|112> C(2)       8.599722    3.588366   26.270708
|113> H(2)       8.171164    2.814931   25.825483
|114> H(2)       8.697812    3.376732   27.232839
|115> C(2)       7.550536    7.577204   18.235382
|116> C(2)       8.862152    7.855408   17.495442
|117> H(2)       9.467845    7.079069   17.598058
|118> H(2)       9.305063    8.644048   17.897921
|119> C(2)       8.616511    8.116897   15.997393
|120> H(2)       9.485982    8.300237   15.538671
|121> C(2)       7.938857    6.892562   15.358860
|122> H(2)       7.777278    7.062426   14.397038
|123> H(2)       8.529904    6.102412   15.439063
|124> C(2)       6.606774    6.619138   16.069076
|125> H(2)       6.173322    5.814570   15.663138
|126> C(2)       6.873169    6.357366   17.559278
|127> H(2)       7.457394    5.563719   17.653627
|128> H(2)       6.016834    6.162620   18.016342
|129> C(2)       6.612548    8.784953   18.042214
|130> H(2)       7.018462    9.587722   18.455604
|131> H(2)       5.750152    8.609083   18.495453
|132> C(2)       6.361304    9.049500   16.542253
|133> H(2)       5.764202    9.845637   16.444108
|134> C(2)       7.680757    9.324381   15.839827
|135> H(2)       8.105450   10.128872   16.230383
|136> H(2)       7.517523    9.496877   14.878736
|137> C(2)       5.684173    7.829597   15.906335
|138> H(2)       4.816262    7.655275   16.349535
|139> H(2)       5.515105    7.999183   14.945723
|140> *
|141>
|142>                          ****END OF INPUT****

CARTESIAN COORDINATES (ANGSTROEM)
---------------------------------
  C      3.959814    2.561396    5.671998
  C      5.124688    2.711507    6.307297
  H      5.910980    2.624495    5.781307
  C      5.318750    3.001413    7.756160
  H      5.764958    2.338040    8.269299
  C      4.922108    4.116628    8.413564
  C      4.187615    5.217888    7.728235
  H      4.592983    6.076768    7.705738
  C      2.996500    5.073177    7.144286
  H      2.598240    5.854076    6.778112
  C      2.240560    3.812194    7.014673
  H      1.374630    3.783577    7.404357
  C      2.667365    2.709888    6.398299
  H      2.096330    1.951116    6.424481
  C      3.855528    2.189510    4.180727
  C      3.206858    3.365610    3.443570
  H      2.312363    3.542338    3.829289
  H      3.759862    4.177210    3.568431
  C      3.066693    3.071653    1.950331
  H      2.641663    3.853971    1.494983
  C      4.418385    2.801990    1.331483
  H      4.992310    3.603436    1.423104
  H      4.310148    2.608715    0.366596
  C      5.082741    1.613149    2.021845
  H      5.984031    1.450291    1.620378
  C      5.232054    1.929266    3.531282
  H      5.671955    1.167507    3.985505
  H      5.806469    2.727454    3.645513
  C      2.984490    0.916534    3.972879
  H      3.414105    0.144085    4.418806
  H      2.094116    1.053032    4.383598
  C      2.820046    0.619609    2.471962
  H      2.244245   -0.189108    2.351826
  C      2.172758    1.820210    1.768524
  H      1.276608    1.990313    2.153342
  H      2.063503    1.624174    0.804312
  C      4.205273    0.362816    1.851089
  H      4.633831   -0.410619    2.296313
  H      4.107182    0.151182    0.888958
  C      5.254459    4.351654    9.886415
  C      3.942843    4.629858   10.626355
  H      3.337150    3.853519   10.523739
  H      3.499931    5.418498   10.223876
  C      4.188483    4.891347   12.124403
  H      3.319013    5.074687   12.583126
  C      4.866138    3.667012   12.762937
  H      5.027716    3.836876   13.724759
  H      4.275091    2.876862   12.682734
  C      6.198220    3.393588   12.052721
  H      6.631672    2.589020   12.458659
  C      5.931826    3.131816   10.562519
  H      5.347601    2.338169   10.468170
  H      6.788160    2.937070   10.105455
  C      6.192447    5.559403   10.079583
  H      5.786533    6.362172    9.666193
  H      7.054843    5.383533    9.626344
  C      6.443690    5.823950   11.579544
  H      7.040792    6.620087   11.677689
  C      5.124238    6.098831   12.281970
  H      4.699544    6.903322   11.891414
  H      5.287472    6.271327   13.243060
  C      7.120822    4.604047   12.215462
  H      7.988732    4.429725   11.772262
  H      7.289890    4.773633   13.176074
  C      8.845181    5.786946   22.449799
  C      7.680306    5.937057   21.814500
  H      6.894014    5.850045   22.340490
  C      7.486244    6.226963   20.365637
  H      7.040037    5.563590   19.852498
  C      7.882887    7.342178   19.708233
  C      8.617380    8.443438   20.393561
  H      8.212011    9.302318   20.416059
  C      9.808495    8.298727   20.977511
  H     10.206755    9.079626   21.343684
  C     10.564435    7.037744   21.107124
  H     11.430364    7.009127   20.717440
  C     10.137630    5.935438   21.723497
  H     10.708664    5.176666   21.697316
  C      8.949467    5.415060   23.941070
  C      9.598136    6.591160   24.678227
  H     10.492631    6.767888   24.292508
  H      9.045132    7.402760   24.553366
  C      9.738301    6.297203   26.171466
  H     10.163332    7.079521   26.626814
  C      8.386610    6.027540   26.790314
  H      7.812684    6.828986   26.698693
  H      8.494847    5.834265   27.755201
  C      7.722253    4.838699   26.099952
  H      6.820963    4.675841   26.501419
  C      7.572941    5.154816   24.590515
  H      7.133040    4.393057   24.136291
  H      6.998526    5.953004   24.476284
  C      9.820505    4.142084   24.148918
  H      9.390889    3.369635   23.702991
  H     10.710879    4.278582   23.738199
  C      9.984949    3.845159   25.649835
  H     10.560750    3.036442   25.769971
  C     10.632236    5.045760   26.353273
  H     11.528387    5.215863   25.968455
  H     10.741492    4.849724   27.317485
  C      8.599722    3.588366   26.270708
  H      8.171164    2.814931   25.825483
  H      8.697812    3.376732   27.232839
  C      7.550536    7.577204   18.235382
  C      8.862152    7.855408   17.495442
  H      9.467845    7.079069   17.598058
  H      9.305063    8.644048   17.897921
  C      8.616511    8.116897   15.997393
  H      9.485982    8.300237   15.538671
  C      7.938857    6.892562   15.358860
  H      7.777278    7.062426   14.397038
  H      8.529904    6.102412   15.439063
  C      6.606774    6.619138   16.069076
  H      6.173322    5.814570   15.663138
  C      6.873169    6.357366   17.559278
  H      7.457394    5.563719   17.653627
  H      6.016834    6.162620   18.016342
  C      6.612548    8.784953   18.042214
  H      7.018462    9.587722   18.455604
  H      5.750152    8.609083   18.495453
  C      6.361304    9.049500   16.542253
  H      5.764202    9.845637   16.444108
  C      7.680757    9.324381   15.839827
  H      8.105450   10.128872   16.230383
  H      7.517523    9.496877   14.878736
  C      5.684173    7.829597   15.906335
  H      4.816262    7.655275   16.349535
  H      5.515105    7.999183   14.945723

 Total Charge           Charge          ....    0
 Multiplicity           Mult            ....    1
 Number of Electrons    NEL             ....  408
 Basis Dimension        Dim             .... 1776

ORBITAL ENERGIES
----------------

  NO   OCC          E(Eh)            E(eV)
   0   2.0000     -11.222705      -305.3853
   1   2.0000     -11.222343      -305.3755
   2   2.0000     -11.220128      -305.3152
   3   2.0000     -11.219887      -305.3086
   4   2.0000     -11.219156      -305.2888
   5   2.0000     -11.218971      -305.2837
   6   2.0000     -11.217069      -305.2320
   7   2.0000     -11.216560      -305.2181
   8   2.0000     -11.206407      -304.9418
   9   2.0000     -11.206141      -304.9346
  10   2.0000     -11.205420      -304.9150
  11   2.0000     -11.205178      -304.9084
  12   2.0000     -11.204531      -304.8908
  13   2.0000     -11.204266      -304.8836
  14   2.0000     -11.203570      -304.8646
  15   2.0000     -11.203329      -304.8581
  16   2.0000     -11.197867      -304.7095
  17   2.0000     -11.197513      -304.6998
  18   2.0000     -11.194942      -304.6298
  19   2.0000     -11.194696      -304.6232
  20   2.0000     -11.194688      -304.6230
  21   2.0000     -11.194555      -304.6193
  22   2.0000     -11.193721      -304.5966
  23   2.0000     -11.193588      -304.5930
  24   2.0000     -11.193139      -304.5808
  25   2.0000     -11.192977      -304.5764
  26   2.0000     -11.192561      -304.5651
  27   2.0000     -11.192041      -304.5509
  28   2.0000     -11.191907      -304.5473
  29   2.0000     -11.191348      -304.5321
  30   2.0000     -11.189667      -304.4863
  31   2.0000     -11.189534      -304.4827
  32   2.0000     -11.178741      -304.1890
  33   2.0000     -11.178582      -304.1847
  34   2.0000     -11.177802      -304.1635
  35   2.0000     -11.177420      -304.1531
  36   2.0000     -11.175588      -304.1032
  37   2.0000     -11.175431      -304.0989
  38   2.0000     -11.175304      -304.0955
  39   2.0000     -11.174464      -304.0726
  40   2.0000     -11.174374      -304.0702
  41   2.0000     -11.174250      -304.0668
  42   2.0000     -11.173965      -304.0590
  43   2.0000     -11.173840      -304.0556
  44   2.0000     -11.173696      -304.0517
  45   2.0000     -11.173054      -304.0342
  46   2.0000     -11.172728      -304.0254
  47   2.0000     -11.172401      -304.0165
  48   2.0000     -11.172391      -304.0162
  49   2.0000     -11.171630      -303.9955
  50   2.0000     -11.171271      -303.9857
  51   2.0000     -11.170784      -303.9725
  52   2.0000     -11.170738      -303.9712
  53   2.0000     -11.170579      -303.9669
  54   2.0000     -11.170570      -303.9667
  55   2.0000     -11.170446      -303.9633
  56   2.0000      -1.169873       -31.8339
  57   2.0000      -1.169352       -31.8197
  58   2.0000      -1.167308       -31.7641
  59   2.0000      -1.166953       -31.7544
  60   2.0000      -1.127001       -30.6672
  61   2.0000      -1.126670       -30.6583
  62   2.0000      -1.086322       -29.5603
  63   2.0000      -1.085860       -29.5478
  64   2.0000      -1.067344       -29.0439
  65   2.0000      -1.067011       -29.0348
  66   2.0000      -1.046785       -28.4845
  67   2.0000      -1.046645       -28.4806
  68   2.0000      -1.046061       -28.4648
  69   2.0000      -1.045079       -28.4380
  70   2.0000      -1.043630       -28.3986
  71   2.0000      -1.042991       -28.3812
  72   2.0000      -1.042825       -28.3767
  73   2.0000      -1.042604       -28.3707
  74   2.0000      -1.028171       -27.9779
  75   2.0000      -1.027816       -27.9683
  76   2.0000      -1.020940       -27.7812
  77   2.0000      -1.020507       -27.7694
  78   2.0000      -0.952023       -25.9059
  79   2.0000      -0.951752       -25.8985
  80   2.0000      -0.933047       -25.3895
  81   2.0000      -0.932705       -25.3802
  82   2.0000      -0.931686       -25.3525
  83   2.0000      -0.931262       -25.3409
  84   2.0000      -0.930745       -25.3269
  85   2.0000      -0.930166       -25.3111
  86   2.0000      -0.927927       -25.2502
  87   2.0000      -0.927538       -25.2396
  88   2.0000      -0.893402       -24.3107
  89   2.0000      -0.893119       -24.3030
  90   2.0000      -0.825572       -22.4650
  91   2.0000      -0.824997       -22.4493
  92   2.0000      -0.822151       -22.3719
  93   2.0000      -0.821689       -22.3593
  94   2.0000      -0.815587       -22.1933
  95   2.0000      -0.814952       -22.1760
  96   2.0000      -0.814521       -22.1642
  97   2.0000      -0.814122       -22.1534
  98   2.0000      -0.811782       -22.0897
  99   2.0000      -0.811254       -22.0753
 100   2.0000      -0.800672       -21.7874
 101   2.0000      -0.800169       -21.7737
 102   2.0000      -0.776660       -21.1340
 103   2.0000      -0.776266       -21.1233
 104   2.0000      -0.750101       -20.4113
 105   2.0000      -0.749762       -20.4021
 106   2.0000      -0.724611       -19.7177
 107   2.0000      -0.722583       -19.6625
 108   2.0000      -0.722419       -19.6580
 109   2.0000      -0.720935       -19.6176
 110   2.0000      -0.688540       -18.7361
 111   2.0000      -0.688171       -18.7261
 112   2.0000      -0.683552       -18.6004
 113   2.0000      -0.683217       -18.5913
 114   2.0000      -0.654076       -17.7983
 115   2.0000      -0.653575       -17.7847
 116   2.0000      -0.646597       -17.5948
 117   2.0000      -0.646109       -17.5815
 118   2.0000      -0.639467       -17.4008
 119   2.0000      -0.638707       -17.3801
 120   2.0000      -0.638033       -17.3617
 121   2.0000      -0.637971       -17.3601
 122   2.0000      -0.637698       -17.3526
 123   2.0000      -0.637451       -17.3459
 124   2.0000      -0.636768       -17.3273
 125   2.0000      -0.636280       -17.3141
 126   2.0000      -0.635852       -17.3024
 127   2.0000      -0.635712       -17.2986
 128   2.0000      -0.634542       -17.2668
 129   2.0000      -0.633745       -17.2451
 130   2.0000      -0.623691       -16.9715
 131   2.0000      -0.623399       -16.9635
 132   2.0000      -0.612546       -16.6682
 133   2.0000      -0.611890       -16.6504
 134   2.0000      -0.598186       -16.2775
 135   2.0000      -0.596430       -16.2297
 136   2.0000      -0.582307       -15.8454
 137   2.0000      -0.581671       -15.8281
 138   2.0000      -0.578580       -15.7440
 139   2.0000      -0.578029       -15.7290
 140   2.0000      -0.576764       -15.6946
 141   2.0000      -0.575297       -15.6546
 142   2.0000      -0.573326       -15.6010
 143   2.0000      -0.573138       -15.5959
 144   2.0000      -0.572497       -15.5784
 145   2.0000      -0.571969       -15.5641
 146   2.0000      -0.565282       -15.3821
 147   2.0000      -0.564079       -15.3494
 148   2.0000      -0.558477       -15.1969
 149   2.0000      -0.557273       -15.1642
 150   2.0000      -0.551237       -14.9999
 151   2.0000      -0.551101       -14.9962
 152   2.0000      -0.549548       -14.9539
 153   2.0000      -0.548867       -14.9354
 154   2.0000      -0.548454       -14.9242
 155   2.0000      -0.547998       -14.9118
 156   2.0000      -0.547786       -14.9060
 157   2.0000      -0.547648       -14.9023
 158   2.0000      -0.522951       -14.2302
 159   2.0000      -0.522445       -14.2164
 160   2.0000      -0.517014       -14.0687
 161   2.0000      -0.516229       -14.0473
 162   2.0000      -0.484068       -13.1721
 163   2.0000      -0.482919       -13.1409
 164   2.0000      -0.475577       -12.9411
 165   2.0000      -0.475067       -12.9272
 166   2.0000      -0.473128       -12.8745
 167   2.0000      -0.472843       -12.8667
 168   2.0000      -0.464711       -12.6454
 169   2.0000      -0.464627       -12.6431
 170   2.0000      -0.464480       -12.6392
 171   2.0000      -0.463627       -12.6159
 172   2.0000      -0.461317       -12.5531
 173   2.0000      -0.460226       -12.5234
 174   2.0000      -0.459510       -12.5039
 175   2.0000      -0.459426       -12.5016
 176   2.0000      -0.458352       -12.4724
 177   2.0000      -0.457921       -12.4607
 178   2.0000      -0.457459       -12.4481
 179   2.0000      -0.456143       -12.4123
 180   2.0000      -0.452561       -12.3148
 181   2.0000      -0.452353       -12.3091
 182   2.0000      -0.452191       -12.3047
 183   2.0000      -0.451765       -12.2932
 184   2.0000      -0.417573       -11.3627
 185   2.0000      -0.416999       -11.3471
 186   2.0000      -0.407616       -11.0918
 187   2.0000      -0.407022       -11.0756
 188   2.0000      -0.406247       -11.0545
 189   2.0000      -0.405983       -11.0474
 190   2.0000      -0.402444       -10.9510
 191   2.0000      -0.402267       -10.9463
 192   2.0000      -0.400481       -10.8977
 193   2.0000      -0.399755       -10.8779
 194   2.0000      -0.399450       -10.8696
 195   2.0000      -0.399019       -10.8578
 196   2.0000      -0.391951       -10.6655
 197   2.0000      -0.391642       -10.6571
 198   2.0000      -0.343597        -9.3497
 199   2.0000      -0.343339        -9.3427
 200   2.0000      -0.340069        -9.2538
 201   2.0000      -0.339777        -9.2458
 202   2.0000      -0.301674        -8.2090
 203   2.0000      -0.301380        -8.2010
 204   0.0000       0.124210         3.3799
 205   0.0000       0.124655         3.3920
 206   0.0000       0.125975         3.4279
 207   0.0000       0.132806         3.6138
 208   0.0000       0.133543         3.6339

MULLIKEN ATOMIC CHARGES
-----------------------
   0 C :    0.251465
   1 C :   -0.106311
   2 H :    0.078895
   3 C :   -0.085017
   4 H :    0.079214
   5 C :    0.291419
   6 C :   -0.357165
   7 H :    0.064503
   8 C :   -0.040651
   9 H :    0.065019
  10 C :   -0.062329
  11 H :    0.064994
  12 C :   -0.356523
  13 H :    0.063954
  14 C :    0.355498
  15 C :   -0.471736
  16 H :    0.096298
  17 H :    0.093204
  18 C :    0.342636
  19 H :    0.093201
  20 C :   -0.431716
  21 H :    0.075754
  22 H :    0.091614
  23 C :    0.361680
  24 H :    0.092164
  25 C :   -0.445165
  26 H :    0.086076
  27 H :    0.081966
  28 C :   -0.460581
  29 H :    0.091617
  30 H :    0.084369
  31 C :    0.312831
  32 H :    0.097086
  33 C :   -0.424271
  34 H :    0.074854
  35 H :    0.093800
  36 C :   -0.425056
  37 H :    0.077431
  38 H :    0.090172
  39 C :    0.303613
  40 C :   -0.491853
  41 H :    0.092304
  42 H :    0.096299
  43 C :    0.428840
  44 H :    0.096335
  45 C :   -0.449251
  46 H :    0.101282
  47 H :    0.084600
  48 C :    0.408383
  49 H :    0.091168
  50 C :   -0.449838
  51 H :    0.085997
  52 H :    0.078913
  53 C :   -0.404078
  54 H :    0.082457
  55 H :    0.087344
  56 C :    0.332807
  57 H :    0.099574
  58 C :   -0.563978
  59 H :    0.076105
  60 H :    0.122653
  61 C :   -0.492667
  62 H :    0.078488
  63 H :    0.120173
  64 C :    0.250939
  65 C :   -0.105414
  66 H :    0.078959
  67 C :   -0.077483
  68 H :    0.079066
  69 C :    0.289474
  70 C :   -0.357989
  71 H :    0.064276
  72 C :   -0.041294
  73 H :    0.065230
  74 C :   -0.062825
  75 H :    0.065084
  76 C :   -0.356238
  77 H :    0.064043
  78 C :    0.355967
  79 C :   -0.471846
  80 H :    0.096335
  81 H :    0.093228
  82 C :    0.342843
  83 H :    0.093256
  84 C :   -0.431825
  85 H :    0.075837
  86 H :    0.091643
  87 C :    0.361615
  88 H :    0.092206
  89 C :   -0.445521
  90 H :    0.086191
  91 H :    0.081937
  92 C :   -0.460539
  93 H :    0.091641
  94 H :    0.084367
  95 C :    0.312849
  96 H :    0.097133
  97 C :   -0.424414
  98 H :    0.074868
  99 H :    0.093855
 100 C :   -0.425125
 101 H :    0.077455
 102 H :    0.090226
 103 C :    0.316565
 104 C :   -0.513269
 105 H :    0.090226
 106 H :    0.101528
 107 C :    0.500186
 108 H :    0.097430
 109 C :   -0.579888
 110 H :    0.117757
 111 H :    0.080634
 112 C :    0.318242
 113 H :    0.125679
 114 C :   -0.402851
 115 H :    0.085283
 116 H :    0.078320
 117 C :   -0.465108
 118 H :    0.086658
 119 H :    0.087241
 120 C :    0.355763
 121 H :    0.096306
 122 C :   -0.452462
 123 H :    0.077748
 124 H :    0.089171
 125 C :   -0.469185
 126 H :    0.078182
 127 H :    0.108970
Sum of atomic charges:    0.0000000

E(0)                                       ...  -2162.560720822
E(0)                                       ...  -2162.560720822
E(CORR)(strong-pairs)                      ...     -0.003311389
E(CORR)(weak-pairs)                        ...     -0.001611211
E(CORR)(corrected)                         ...     -0.004922599
E(TOT)                                     ...  -2162.565643421

LOEWDIN ATOMIC CHARGES
----------------------
   0 C :   -0.062505
   1 C :   -0.083457
   2 H :    0.093147
   3 C :   -0.077135
   4 H :    0.091934
   5 C :   -0.057561
   6 C :   -0.064599
   7 H :    0.091600
   8 C :   -0.092029
   9 H :    0.090456
  10 C :   -0.094925
  11 H :    0.090646
  12 C :   -0.064099
  13 H :    0.092370
  14 C :   -0.156077
  15 C :   -0.125424
  16 H :    0.102035
  17 H :    0.102178
  18 C :   -0.165857
  19 H :    0.103430
  20 C :   -0.153914
  21 H :    0.097243
  22 H :    0.097276
  23 C :   -0.157847
  24 H :    0.102029
  25 C :   -0.124062
  26 H :    0.098619
  27 H :    0.098650
  28 C :   -0.119536
  29 H :    0.099142
  30 H :    0.096727
  31 C :   -0.162229
  32 H :    0.102015
  33 C :   -0.141420
  34 H :    0.094324
  35 H :    0.094461
  36 C :   -0.145022
  37 H :    0.094724
  38 H :    0.094744
  39 C :   -0.165116
  40 C :   -0.123697
  41 H :    0.101688
  42 H :    0.101197
  43 C :   -0.156636
  44 H :    0.101665
  45 C :   -0.145474
  46 H :    0.094033
  47 H :    0.094977
  48 C :   -0.162488
  49 H :    0.102926
  50 C :   -0.123877
  51 H :    0.100079
  52 H :    0.098566
  53 C :   -0.117724
  54 H :    0.097176
  55 H :    0.099828
  56 C :   -0.165388
  57 H :    0.102629
  58 C :   -0.150190
  59 H :    0.096009
  60 H :    0.096859
  61 C :   -0.145873
  62 H :    0.095521
  63 H :    0.095938
  64 C :   -0.062442
  65 C :   -0.083492
  66 H :    0.093161
  67 C :   -0.077115
  68 H :    0.091895
  69 C :   -0.057596
  70 C :   -0.064647
  71 H :    0.091623
  72 C :   -0.091913
  73 H :    0.090487
  74 C :   -0.094919
  75 H :    0.090659
  76 C :   -0.064069
  77 H :    0.092382
  78 C :   -0.156072
  79 C :   -0.125421
  80 H :    0.102036
  81 H :    0.102180
  82 C :   -0.165846
  83 H :    0.103441
  84 C :   -0.153902
  85 H :    0.097247
  86 H :    0.097287
  87 C :   -0.157838
  88 H :    0.102039
  89 C :   -0.124064
  90 H :    0.098618
  91 H :    0.098650
  92 C :   -0.119536
  93 H :    0.099142
  94 H :    0.096726
  95 C :   -0.162219
  96 H :    0.102025
  97 C :   -0.141407
  98 H :    0.094327
  99 H :    0.094472
 100 C :   -0.145008
 101 H :    0.094728
 102 H :    0.094756
 103 C :   -0.165044
 104 C :   -0.123544
 105 H :    0.101746
 106 H :    0.101280
 107 C :   -0.156649
 108 H :    0.101679
 109 C :   -0.148750
 110 H :    0.095307
 111 H :    0.095111
 112 C :   -0.168292
 113 H :    0.101203
 114 C :   -0.122829
 115 H :    0.100260
 116 H :    0.098737
 117 C :   -0.118331
 118 H :    0.097175
 119 H :    0.099776
 120 C :   -0.163616
 121 H :    0.103276
 122 C :   -0.149177
 123 H :    0.095882
 124 H :    0.096242
 125 C :   -0.147405
 126 H :    0.095636
 127 H :    0.094538

  Mayer bond orders larger than 0.100000
B(  0-C ,  1-C ) :   1.9563 B(  0-C , 12-C ) :   1.0239 B(  0-C , 14-C ) :   0.8425
B(  1-C ,  2-H ) :   0.9860 B(  1-C ,  3-C ) :   0.8650 B(  3-C ,  4-H ) :   0.9928
B(  3-C ,  5-C ) :   1.9297 B(  5-C ,  6-C ) :   1.0034 B(  5-C , 39-C ) :   0.8319
B(  6-C ,  7-H ) :   0.9990 B(  6-C ,  8-C ) :   1.9982 B(  8-C ,  9-H ) :   0.9885
B(  8-C , 10-C ) :   0.9156 B( 10-C , 11-H ) :   0.9894 B( 10-C , 12-C ) :   1.9944
B( 12-C , 13-H ) :   1.0006 B( 14-C , 15-C ) :   0.8959 B( 14-C , 25-C ) :   0.9881
B( 14-C , 28-C ) :   0.9202 B( 15-C , 16-H ) :   0.9924 B( 15-C , 17-H ) :   0.9947
B( 15-C , 18-C ) :   0.9018 B( 15-C , 20-C ) :   0.1070 B( 15-C , 25-C ) :   0.1341
B( 15-C , 33-C ) :   0.1044 B( 18-C , 19-H ) :   0.9760 B( 18-C , 20-C ) :   0.8846
B( 18-C , 33-C ) :   0.8697 B( 20-C , 21-H ) :   0.9959 B( 20-C , 22-H ) :   0.9977
B( 20-C , 23-C ) :   0.8794 B( 20-C , 25-C ) :   0.1049 B( 20-C , 33-C ) :   0.1123
B( 20-C , 36-C ) :   0.1135 B( 23-C , 24-H ) :   0.9724 B( 23-C , 25-C ) :   0.8964
B( 23-C , 36-C ) :   0.8790 B( 25-C , 26-H ) :   0.9969 B( 25-C , 27-H ) :   0.9923
B( 25-C , 28-C ) :   0.1084 B( 25-C , 36-C ) :   0.1016 B( 28-C , 29-H ) :   0.9940
B( 28-C , 30-H ) :   0.9863 B( 28-C , 31-C ) :   0.9242 B( 28-C , 33-C ) :   0.1004
B( 31-C , 32-H ) :   0.9734 B( 31-C , 33-C ) :   0.8816 B( 31-C , 36-C ) :   0.8956
B( 33-C , 34-H ) :   0.9966 B( 33-C , 35-H ) :   0.9966 B( 33-C , 36-C ) :   0.1097
B( 36-C , 37-H ) :   0.9955 B( 36-C , 38-H ) :   0.9960 B( 39-C , 40-C ) :   0.9204
B( 39-C , 50-C ) :   0.9976 B( 39-C , 53-C ) :   0.9229 B( 40-C , 41-H ) :   0.9923
B( 40-C , 42-H ) :   0.9896 B( 40-C , 43-C ) :   0.8817 B( 40-C , 45-C ) :   0.1152
B( 40-C , 50-C ) :   0.1228 B( 40-C , 53-C ) :   0.1066 B( 40-C , 58-C ) :   0.1403
B( 43-C , 44-H ) :   0.9740 B( 43-C , 45-C ) :   0.8526 B( 43-C , 58-C ) :   0.8238
B( 45-C , 46-H ) :   0.9897 B( 45-C , 47-H ) :   0.9952 B( 45-C , 48-C ) :   0.8622
B( 45-C , 50-C ) :   0.1129 B( 45-C , 58-C ) :   0.1463 B( 45-C , 61-C ) :   0.1256
B( 48-C , 49-H ) :   0.9703 B( 48-C , 50-C ) :   0.8946 B( 48-C , 61-C ) :   0.8501
B( 50-C , 51-H ) :   0.9944 B( 50-C , 52-H ) :   0.9917 B( 50-C , 53-C ) :   0.1347
B( 50-C , 61-C ) :   0.1241 B( 53-C , 54-H ) :   0.9909 B( 53-C , 55-H ) :   0.9916
B( 53-C , 56-C ) :   0.9197 B( 53-C , 58-C ) :   0.1317 B( 53-C , 61-C ) :   0.1049
B( 56-C , 57-H ) :   0.9741 B( 56-C , 58-C ) :   0.8336 B( 56-C , 61-C ) :   0.8679
B( 58-C , 59-H ) :   1.0002 B( 58-C , 60-H ) :   0.9667 B( 58-C , 61-C ) :   0.1448
B( 61-C , 62-H ) :   0.9957 B( 61-C , 63-H ) :   0.9847 B( 64-C , 65-C ) :   1.9569
B( 64-C , 76-C ) :   1.0237 B( 64-C , 78-C ) :   0.8423 B( 65-C , 66-H ) :   0.9861
B( 65-C , 67-C ) :   0.8641 B( 67-C , 68-H ) :   0.9929 B( 67-C , 69-C ) :   1.9257
B( 69-C , 70-C ) :   1.0097 B( 69-C ,103-C ) :   0.8366 B( 70-C , 71-H ) :   0.9992
B( 70-C , 72-C ) :   1.9974 B( 72-C , 73-H ) :   0.9883 B( 72-C , 74-C ) :   0.9155
B( 74-C , 75-H ) :   0.9894 B( 74-C , 76-C ) :   1.9945 B( 76-C , 77-H ) :   1.0007
B( 78-C , 79-C ) :   0.8960 B( 78-C , 89-C ) :   0.9881 B( 78-C , 92-C ) :   0.9203
B( 79-C , 80-H ) :   0.9924 B( 79-C , 81-H ) :   0.9947 B( 79-C , 82-C ) :   0.9019
B( 79-C , 84-C ) :   0.1070 B( 79-C , 89-C ) :   0.1340 B( 79-C , 97-C ) :   0.1046
B( 82-C , 83-H ) :   0.9759 B( 82-C , 84-C ) :   0.8845 B( 82-C , 97-C ) :   0.8696
B( 84-C , 85-H ) :   0.9959 B( 84-C , 86-H ) :   0.9977 B( 84-C , 87-C ) :   0.8794
B( 84-C , 89-C ) :   0.1048 B( 84-C , 97-C ) :   0.1124 B( 84-C ,100-C ) :   0.1136
B( 87-C , 88-H ) :   0.9725 B( 87-C , 89-C ) :   0.8964 B( 87-C ,100-C ) :   0.8789
B( 89-C , 90-H ) :   0.9970 B( 89-C , 91-H ) :   0.9923 B( 89-C , 92-C ) :   0.1084
B( 89-C ,100-C ) :   0.1015 B( 92-C , 93-H ) :   0.9940 B( 92-C , 94-H ) :   0.9863
B( 92-C , 95-C ) :   0.9242 B( 92-C , 97-C ) :   0.1003 B( 95-C , 96-H ) :   0.9734
B( 95-C , 97-C ) :   0.8816 B( 95-C ,100-C ) :   0.8956 B( 97-C , 98-H ) :   0.9966
B( 97-C , 99-H ) :   0.9966 B( 97-C ,100-C ) :   0.1097 B(100-C ,101-H ) :   0.9956
B(100-C ,102-H ) :   0.9960 B(103-C ,104-C ) :   0.9163 B(103-C ,114-C ) :   1.0117
B(103-C ,117-C ) :   0.9000 B(104-C ,105-H ) :   0.9914 B(104-C ,106-H ) :   0.9914
B(104-C ,107-C ) :   0.8525 B(104-C ,109-C ) :   0.1454 B(104-C ,114-C ) :   0.1307
B(104-C ,117-C ) :   0.1059 B(104-C ,122-C ) :   0.1250 B(107-C ,108-H ) :   0.9725
B(107-C ,109-C ) :   0.8121 B(107-C ,122-C ) :   0.8199 B(109-C ,110-H ) :   0.9847
B(109-C ,111-H ) :   0.9975 B(109-C ,112-C ) :   0.8415 B(109-C ,114-C ) :   0.1188
B(109-C ,122-C ) :   0.1556 B(109-C ,125-C ) :   0.1189 B(112-C ,113-H ) :   0.9680
B(112-C ,114-C ) :   0.9210 B(112-C ,125-C ) :   0.8525 B(114-C ,115-H ) :   0.9924
B(114-C ,116-H ) :   0.9911 B(114-C ,117-C ) :   0.1380 B(114-C ,125-C ) :   0.1152
B(117-C ,118-H ) :   0.9906 B(117-C ,119-H ) :   0.9923 B(117-C ,120-C ) :   0.9116
B(117-C ,122-C ) :   0.1115 B(117-C ,125-C ) :   0.1060 B(120-C ,121-H ) :   0.9715
B(120-C ,122-C ) :   0.8634 B(120-C ,125-C ) :   0.8946 B(122-C ,123-H ) :   0.9985
B(122-C ,124-H ) :   0.9981 B(122-C ,125-C ) :   0.1217 B(125-C ,126-H ) :   0.9943
B(125-C ,127-H ) :   0.9916

FINAL SINGLE POINT ENERGY     -2162.565643421061

DIPOLE MOMENT
-------------
                                X             Y             Z
Electronic contribution:      0.00808       1.97621       0.01884
Nuclear contribution   :     -0.00000      -1.90643      -0.00000
                        -----------------------------------------
Total Dipole Moment    :      0.00807       0.06978       0.01884
                        -----------------------------------------
Magnitude (a.u.)       :      0.07273
Magnitude (Debye)      :      0.18485

Rotational constants in cm-1:     0.005329     0.000313     0.000306
Rotational constants in MHz :   159.757833     9.397362     9.171443

                             ****ORCA TERMINATED NORMALLY****
