                         Program Version 6.0  -  CURRENT   -
|  1> ! DLPNO-CCSD RIJCOSX def2-TZVP(-f) def2/J def2-tzvp/C verytightscf LED
|  2>
|  3> %pal nprocs 16 end
|  4> %maxcore 8000
|  5> %scf maxiter 999 end
|  6> %mdci TCutPairs 1e-5 printlevel 3
|  7>       LocMet FB LocTol 1.0e-6 LocRandom 1
|  8>       HFFragInter {1 1} {2 2}
|  9>       end
| 10>
| 11> *xyz 0 1
| 12> C(1)       3.959814    2.561396    5.671998
| 13> C(1)       5.124688    2.711507    6.307297
| 14> H(1)       5.910980    2.624495    5.781307
| 15> C(1)       5.318750    3.001413    7.756160
| 16> H(1)       5.764958    2.338040    8.269299
| 17> C(1)       4.922108    4.116628    8.413564
| 18> C(1)       4.187615    5.217888    7.728235
| 19> H(1)       4.592983    6.076768    7.705738
| 20> C(1)       2.996500    5.073177    7.144286
| 21> H(1)       2.598240    5.854076    6.778112
| 22> C(1)       2.240560    3.812194    7.014673
| 23> H(1)       1.374630    3.783577    7.404357
| 24> C(1)       2.667365    2.709888    6.398299
| 25> H(1)       2.096330    1.951116    6.424481
| 26> C(1)       3.855528    2.189510    4.180727
| 27> C(1)       3.206858    3.365610    3.443570
| 28> H(1)       2.312363    3.542338    3.829289
| 29> H(1)       3.759862    4.177210    3.568431
| 30> C(1)       3.066693    3.071653    1.950331
| 31> H(1)       2.641663    3.853971    1.494983
| 32> C(1)       4.418385    2.801990    1.331483
| 33> H(1)       4.992310    3.603436    1.423104
| 34> H(1)       4.310148    2.608715    0.366596
| 35> C(1)       5.082741    1.613149    2.021845
| 36> H(1)       5.984031    1.450291    1.620378
| 37> C(1)       5.232054    1.929266    3.531282
| 38> H(1)       5.671955    1.167507    3.985505
| 39> H(1)       5.806469    2.727454    3.645513
| 40> C(1)       2.984490    0.916534    3.972879
| 41> H(1)       3.414105    0.144085    4.418806
| 42> H(1)       2.094116    1.053032    4.383598
| 43> C(1)       2.820046    0.619609    2.471962
| 44> H(1)       2.244245   -0.189108    2.351826
| 45> C(1)       2.172758    1.820210    1.768524
| 46> H(1)       1.276608    1.990313    2.153342
| 47> H(1)       2.063503    1.624174    0.804312
| 48> C(1)       4.205273    0.362816    1.851089
| 49> H(1)       4.633831   -0.410619    2.296313
| 50> H(1)       4.107182    0.151182    0.888958
| 51> C(1)       5.254459    4.351654    9.886415
| 52> C(1)       3.942843    4.629858   10.626355
| 53> H(1)       3.337150    3.853519   10.523739
| 54> H(1)       3.499931    5.418498   10.223876
| 55> C(1)       4.188483    4.891347   12.124403
| 56> H(1)       3.319013    5.074687   12.583126
| 57> C(1)       4.866138    3.667012   12.762937
| 58> H(1)       5.027716    3.836876   13.724759
| 59> H(1)       4.275091    2.876862   12.682734
| 60> C(1)       6.198220    3.393588   12.052721
| 61> H(1)       6.631672    2.589020   12.458659
| 62> C(1)       5.931826    3.131816   10.562519
| 63> H(1)       5.347601    2.338169   10.468170
| 64> H(1)       6.788160    2.937070   10.105455
| 65> C(1)       6.192447    5.559403   10.079583
| 66> H(1)       5.786533    6.362172    9.666193
| 67> H(1)       7.054843    5.383533    9.626344
| 68> C(1)       6.443690    5.823950   11.579544
| 69> H(1)       7.040792    6.620087   11.677689
| 70> C(1)       5.124238    6.098831   12.281970
| 71> H(1)       4.699544    6.903322   11.891414
| 72> H(1)       5.287472    6.271327   13.243060
| 73> C(1)       7.120822    4.604047   12.215462
| 74> H(1)       7.988732    4.429725   11.772262
| 75> H(1)       7.289890    4.773633   13.176074
| 76> C(2)      -1.754486    5.786946    5.671998
| 77> C(2)      -0.589612    5.937057    6.307297
| 78> H(2)       0.196680    5.850045    5.781307
| 79> C(2)      -0.395550    6.226963    7.756160
| 80> H(2)       0.050658    5.563590    8.269299
| 81> C(2)      -0.792192    7.342178    8.413564
| 82> C(2)      -1.526685    8.443438    7.728235
| 83> H(2)      -1.121317    9.302318    7.705738
| 84> C(2)      -2.717800    8.298727    7.144286
| 85> H(2)      -3.116060    9.079626    6.778112
| 86> C(2)      -3.473740    7.037744    7.014673
| 87> H(2)      -4.339670    7.009127    7.404357
| 88> C(2)      -3.046935    5.935438    6.398299
| 89> H(2)      -3.617970    5.176666    6.424481
| 90> C(2)      -1.858772    5.415060    4.180727
| 91> C(2)      -2.507442    6.591160    3.443570
| 92> H(2)      -3.401937    6.767888    3.829289
| 93> H(2)      -1.954438    7.402760    3.568431
| 94> C(2)      -2.647607    6.297203    1.950331
| 95> H(2)      -3.072637    7.079521    1.494983
| 96> C(2)      -1.295915    6.027540    1.331483
| 97> H(2)      -0.721990    6.828986    1.423104
| 98> H(2)      -1.404152    5.834265    0.366596
| 99> C(2)      -0.631559    4.838699    2.021845
|100> H(2)       0.269731    4.675841    1.620378
|101> C(2)      -0.482246    5.154816    3.531282
|102> H(2)      -0.042345    4.393057    3.985505
|103> H(2)       0.092169    5.953004    3.645513
|104> C(2)      -2.729810    4.142084    3.972879
|105> H(2)      -2.300195    3.369635    4.418806
|106> H(2)      -3.620184    4.278582    4.383598
|107> C(2)      -2.894254    3.845159    2.471962
|108> H(2)      -3.470055    3.036442    2.351826
|109> C(2)      -3.541542    5.045760    1.768524
|110> H(2)      -4.437692    5.215863    2.153342
|111> H(2)      -3.650797    4.849724    0.804312
|112> C(2)      -1.509027    3.588366    1.851089
|113> H(2)      -1.080469    2.814931    2.296313
|114> H(2)      -1.607118    3.376732    0.888958
|115> C(2)      -0.459841    7.577204    9.886415
|116> C(2)      -1.771457    7.855408   10.626355
|117> H(2)      -2.377150    7.079069   10.523739
|118> H(2)      -2.214369    8.644048   10.223876
|119> C(2)      -1.525817    8.116897   12.124403
|120> H(2)      -2.395287    8.300237   12.583126
|121> C(2)      -0.848162    6.892562   12.762937
|122> H(2)      -0.686584    7.062426   13.724759
|123> H(2)      -1.439209    6.102412   12.682734
|124> C(2)       0.483920    6.619138   12.052721
|125> H(2)       0.917372    5.814570   12.458659
|126> C(2)       0.217526    6.357366   10.562519
|127> H(2)      -0.366699    5.563719   10.468170
|128> H(2)       1.073860    6.162620   10.105455
|129> C(2)       0.478147    8.784953   10.079583
|130> H(2)       0.072233    9.587722    9.666193
|131> H(2)       1.340543    8.609083    9.626344
|132> C(2)       0.729390    9.049500   11.579544
|133> H(2)       1.326492    9.845637   11.677689
|134> C(2)      -0.590062    9.324381   12.281970
|135> H(2)      -1.014756   10.128872   11.891414
|136> H(2)      -0.426828    9.496877   13.243060
|137> C(2)       1.406522    7.829597   12.215462
|138> H(2)       2.274432    7.655275   11.772262
|139> H(2)       1.575590    7.999183   13.176074
|140> *
|141>
|142>                          ****END OF INPUT****

CARTESIAN COORDINATES (ANGSTROEM)
---------------------------------
  C      3.959814    2.561396    5.671998
  C      5.124688    2.711507    6.307297
  H      5.910980    2.624495    5.781307
  C      5.318750    3.001413    7.756160
  H      5.764958    2.338040    8.269299
  C      4.922108    4.116628    8.413564
  C      4.187615    5.217888    7.728235
  H      4.592983    6.076768    7.705738
  C      2.996500    5.073177    7.144286
  H      2.598240    5.854076    6.778112
  C      2.240560    3.812194    7.014673
  H      1.374630    3.783577    7.404357
  C      2.667365    2.709888    6.398299
  H      2.096330    1.951116    6.424481
  C      3.855528    2.189510    4.180727
  C      3.206858    3.365610    3.443570
  H      2.312363    3.542338    3.829289
  H      3.759862    4.177210    3.568431
  C      3.066693    3.071653    1.950331
  H      2.641663    3.853971    1.494983
  C      4.418385    2.801990    1.331483
  H      4.992310    3.603436    1.423104
  H      4.310148    2.608715    0.366596
  C      5.082741    1.613149    2.021845
  H      5.984031    1.450291    1.620378
  C      5.232054    1.929266    3.531282
  H      5.671955    1.167507    3.985505
  H      5.806469    2.727454    3.645513
  C      2.984490    0.916534    3.972879
  H      3.414105    0.144085    4.418806
  H      2.094116    1.053032    4.383598
  C      2.820046    0.619609    2.471962
  H      2.244245   -0.189108    2.351826
  C      2.172758    1.820210    1.768524
  H      1.276608    1.990313    2.153342
  H      2.063503    1.624174    0.804312
  C      4.205273    0.362816    1.851089
  H      4.633831   -0.410619    2.296313
  H      4.107182    0.151182    0.888958
  C      5.254459    4.351654    9.886415
  C      3.942843    4.629858   10.626355
  H      3.337150    3.853519   10.523739
  H      3.499931    5.418498   10.223876
  C      4.188483    4.891347   12.124403
  H      3.319013    5.074687   12.583126
  C      4.866138    3.667012   12.762937
  H      5.027716    3.836876   13.724759
  H      4.275091    2.876862   12.682734
  C      6.198220    3.393588   12.052721
  H      6.631672    2.589020   12.458659
  C      5.931826    3.131816   10.562519
  H      5.347601    2.338169   10.468170
  H      6.788160    2.937070   10.105455
  C      6.192447    5.559403   10.079583
  H      5.786533    6.362172    9.666193
  H      7.054843    5.383533    9.626344
  C      6.443690    5.823950   11.579544
  H      7.040792    6.620087   11.677689
  C      5.124238    6.098831   12.281970
  H      4.699544    6.903322   11.891414
  H      5.287472    6.271327   13.243060
  C      7.120822    4.604047   12.215462
  H      7.988732    4.429725   11.772262
  H      7.289890    4.773633   13.176074
  C     -1.754486    5.786946    5.671998
  C     -0.589612    5.937057    6.307297
  H      0.196680    5.850045    5.781307
  C     -0.395550    6.226963    7.756160
  H      0.050658    5.563590    8.269299
  C     -0.792192    7.342178    8.413564
  C     -1.526685    8.443438    7.728235
  H     -1.121317    9.302318    7.705738
  C     -2.717800    8.298727    7.144286
  H     -3.116060    9.079626    6.778112
  C     -3.473740    7.037744    7.014673
  H     -4.339670    7.009127    7.404357
  C     -3.046935    5.935438    6.398299
  H     -3.617970    5.176666    6.424481
  C     -1.858772    5.415060    4.180727
  C     -2.507442    6.591160    3.443570
  H     -3.401937    6.767888    3.829289
  H     -1.954438    7.402760    3.568431
  C     -2.647607    6.297203    1.950331
  H     -3.072637    7.079521    1.494983
  C     -1.295915    6.027540    1.331483
  H     -0.721990    6.828986    1.423104
  H     -1.404152    5.834265    0.366596
  C     -0.631559    4.838699    2.021845
  H      0.269731    4.675841    1.620378
  C     -0.482246    5.154816    3.531282
  H     -0.042345    4.393057    3.985505
  H      0.092169    5.953004    3.645513
  C     -2.729810    4.142084    3.972879
  H     -2.300195    3.369635    4.418806
  H     -3.620184    4.278582    4.383598
  C     -2.894254    3.845159    2.471962
  H     -3.470055    3.036442    2.351826
  C     -3.541542    5.045760    1.768524
  H     -4.437692    5.215863    2.153342
  H     -3.650797    4.849724    0.804312
  C     -1.509027    3.588366    1.851089
  H     -1.080469    2.814931    2.296313
  H     -1.607118    3.376732    0.888958
  C     -0.459841    7.577204    9.886415
  C     -1.771457    7.855408   10.626355
  H     -2.377150    7.079069   10.523739
  H     -2.214369    8.644048   10.223876
  C     -1.525817    8.116897   12.124403
  H     -2.395287    8.300237   12.583126
  C     -0.848162    6.892562   12.762937
  H     -0.686584    7.062426   13.724759
  H     -1.439209    6.102412   12.682734
  C      0.483920    6.619138   12.052721
  H      0.917372    5.814570   12.458659
  C      0.217526    6.357366   10.562519
  H     -0.366699    5.563719   10.468170
  H      1.073860    6.162620   10.105455
  C      0.478147    8.784953   10.079583
  H      0.072233    9.587722    9.666193
  H      1.340543    8.609083    9.626344
  C      0.729390    9.049500   11.579544
  H      1.326492    9.845637   11.677689
  C     -0.590062    9.324381   12.281970
  H     -1.014756   10.128872   11.891414
  H     -0.426828    9.496877   13.243060
  C      1.406522    7.829597   12.215462
  H      2.274432    7.655275   11.772262
  H      1.575590    7.999183   13.176074

 Total Charge           Charge          ....    0
 Multiplicity           Mult            ....    1
 Number of Electrons    NEL             ....  408
 Basis Dimension        Dim             .... 1776

ORBITAL ENERGIES
----------------

  NO   OCC          E(Eh)            E(eV)
   0   2.0000     -11.222900      -305.3906
   1   2.0000     -11.221713      -305.3583
   2   2.0000     -11.220240      -305.3183
   3   2.0000     -11.219274      -305.2920
   4   2.0000     -11.218872      -305.2810
   5   2.0000     -11.218565      -305.2727
   6   2.0000     -11.216394      -305.2136
   7   2.0000     -11.216365      -305.2128
   8   2.0000     -11.206450      -304.9430
   9   2.0000     -11.205467      -304.9163
  10   2.0000     -11.204824      -304.8988
  11   2.0000     -11.204580      -304.8921
  12   2.0000     -11.203861      -304.8726
  13   2.0000     -11.203614      -304.8658
  14   2.0000     -11.202931      -304.8472
  15   2.0000     -11.202017      -304.8224
  16   2.0000     -11.197881      -304.7098
  17   2.0000     -11.196894      -304.6830
  18   2.0000     -11.194947      -304.6300
  19   2.0000     -11.194516      -304.6183
  20   2.0000     -11.194442      -304.6163
  21   2.0000     -11.194040      -304.6053
  22   2.0000     -11.193425      -304.5886
  23   2.0000     -11.193026      -304.5777
  24   2.0000     -11.192454      -304.5622
  25   2.0000     -11.192411      -304.5610
  26   2.0000     -11.192126      -304.5532
  27   2.0000     -11.191709      -304.5419
  28   2.0000     -11.191240      -304.5291
  29   2.0000     -11.191197      -304.5279
  30   2.0000     -11.189502      -304.4818
  31   2.0000     -11.189440      -304.4801
  32   2.0000     -11.178638      -304.1862
  33   2.0000     -11.178366      -304.1788
  34   2.0000     -11.177410      -304.1528
  35   2.0000     -11.177238      -304.1481
  36   2.0000     -11.175130      -304.0907
  37   2.0000     -11.174577      -304.0757
  38   2.0000     -11.174390      -304.0706
  39   2.0000     -11.174111      -304.0630
  40   2.0000     -11.174061      -304.0617
  41   2.0000     -11.173795      -304.0544
  42   2.0000     -11.173651      -304.0505
  43   2.0000     -11.173445      -304.0449
  44   2.0000     -11.173246      -304.0395
  45   2.0000     -11.172933      -304.0310
  46   2.0000     -11.172412      -304.0168
  47   2.0000     -11.172115      -304.0087
  48   2.0000     -11.171842      -304.0013
  49   2.0000     -11.171795      -304.0000
  50   2.0000     -11.170901      -303.9757
  51   2.0000     -11.170691      -303.9700
  52   2.0000     -11.170504      -303.9649
  53   2.0000     -11.170381      -303.9615
  54   2.0000     -11.170258      -303.9582
  55   2.0000     -11.170257      -303.9582
  56   2.0000      -1.169475       -31.8230
  57   2.0000      -1.169031       -31.8110
  58   2.0000      -1.167040       -31.7568
  59   2.0000      -1.166636       -31.7458
  60   2.0000      -1.127169       -30.6718
  61   2.0000      -1.125808       -30.6348
  62   2.0000      -1.086035       -29.5525
  63   2.0000      -1.085416       -29.5357
  64   2.0000      -1.067761       -29.0553
  65   2.0000      -1.065927       -29.0053
  66   2.0000      -1.046661       -28.4811
  67   2.0000      -1.046495       -28.4766
  68   2.0000      -1.045439       -28.4478
  69   2.0000      -1.044842       -28.4316
  70   2.0000      -1.043498       -28.3950
  71   2.0000      -1.043195       -28.3868
  72   2.0000      -1.042405       -28.3653
  73   2.0000      -1.041707       -28.3463
  74   2.0000      -1.028207       -27.9789
  75   2.0000      -1.027346       -27.9555
  76   2.0000      -1.020663       -27.7736
  77   2.0000      -1.019833       -27.7511
  78   2.0000      -0.952039       -25.9063
  79   2.0000      -0.951154       -25.8822
  80   2.0000      -0.932723       -25.3807
  81   2.0000      -0.932449       -25.3732
  82   2.0000      -0.931309       -25.3422
  83   2.0000      -0.930754       -25.3271
  84   2.0000      -0.930341       -25.3159
  85   2.0000      -0.930274       -25.3141
  86   2.0000      -0.927664       -25.2430
  87   2.0000      -0.926925       -25.2229
  88   2.0000      -0.894898       -24.3514
  89   2.0000      -0.891240       -24.2519
  90   2.0000      -0.825482       -22.4625
  91   2.0000      -0.824574       -22.4378
  92   2.0000      -0.821806       -22.3625
  93   2.0000      -0.821456       -22.3529
  94   2.0000      -0.815519       -22.1914
  95   2.0000      -0.815199       -22.1827
  96   2.0000      -0.814176       -22.1549
  97   2.0000      -0.813374       -22.1330
  98   2.0000      -0.811535       -22.0830
  99   2.0000      -0.810817       -22.0635
 100   2.0000      -0.800363       -21.7790
 101   2.0000      -0.799893       -21.7662
 102   2.0000      -0.776575       -21.1317
 103   2.0000      -0.775570       -21.1043
 104   2.0000      -0.750480       -20.4216
 105   2.0000      -0.749064       -20.3831
 106   2.0000      -0.724123       -19.7044
 107   2.0000      -0.723258       -19.6808
 108   2.0000      -0.721247       -19.6261
 109   2.0000      -0.720734       -19.6122
 110   2.0000      -0.689224       -18.7547
 111   2.0000      -0.686916       -18.6919
 112   2.0000      -0.684630       -18.6297
 113   2.0000      -0.681795       -18.5526
 114   2.0000      -0.654219       -17.8022
 115   2.0000      -0.652857       -17.7651
 116   2.0000      -0.648073       -17.6350
 117   2.0000      -0.644276       -17.5316
 118   2.0000      -0.640147       -17.4193
 119   2.0000      -0.638960       -17.3870
 120   2.0000      -0.638164       -17.3653
 121   2.0000      -0.637748       -17.3540
 122   2.0000      -0.637329       -17.3426
 123   2.0000      -0.636435       -17.3183
 124   2.0000      -0.636129       -17.3099
 125   2.0000      -0.636003       -17.3065
 126   2.0000      -0.634959       -17.2781
 127   2.0000      -0.634579       -17.2678
 128   2.0000      -0.634089       -17.2544
 129   2.0000      -0.633919       -17.2498
 130   2.0000      -0.624994       -17.0069
 131   2.0000      -0.621320       -16.9070
 132   2.0000      -0.612406       -16.6644
 133   2.0000      -0.611307       -16.6345
 134   2.0000      -0.597303       -16.2534
 135   2.0000      -0.596328       -16.2269
 136   2.0000      -0.582503       -15.8507
 137   2.0000      -0.580686       -15.8013
 138   2.0000      -0.578250       -15.7350
 139   2.0000      -0.577893       -15.7253
 140   2.0000      -0.576341       -15.6830
 141   2.0000      -0.575365       -15.6565
 142   2.0000      -0.574108       -15.6223
 143   2.0000      -0.572881       -15.5889
 144   2.0000      -0.571983       -15.5644
 145   2.0000      -0.570867       -15.5341
 146   2.0000      -0.564738       -15.3673
 147   2.0000      -0.564075       -15.3493
 148   2.0000      -0.558530       -15.1984
 149   2.0000      -0.556986       -15.1563
 150   2.0000      -0.552876       -15.0445
 151   2.0000      -0.552236       -15.0271
 152   2.0000      -0.551512       -15.0074
 153   2.0000      -0.549806       -14.9610
 154   2.0000      -0.548645       -14.9294
 155   2.0000      -0.546853       -14.8806
 156   2.0000      -0.544224       -14.8091
 157   2.0000      -0.543011       -14.7761
 158   2.0000      -0.522781       -14.2256
 159   2.0000      -0.521719       -14.1967
 160   2.0000      -0.517601       -14.0846
 161   2.0000      -0.515074       -14.0159
 162   2.0000      -0.484200       -13.1758
 163   2.0000      -0.482217       -13.1218
 164   2.0000      -0.475176       -12.9302
 165   2.0000      -0.474811       -12.9203
 166   2.0000      -0.472821       -12.8661
 167   2.0000      -0.472616       -12.8605
 168   2.0000      -0.465256       -12.6603
 169   2.0000      -0.464461       -12.6386
 170   2.0000      -0.463765       -12.6197
 171   2.0000      -0.462925       -12.5968
 172   2.0000      -0.459873       -12.5138
 173   2.0000      -0.459670       -12.5083
 174   2.0000      -0.459293       -12.4980
 175   2.0000      -0.459048       -12.4913
 176   2.0000      -0.458362       -12.4727
 177   2.0000      -0.457980       -12.4623
 178   2.0000      -0.457184       -12.4406
 179   2.0000      -0.456654       -12.4262
 180   2.0000      -0.453729       -12.3466
 181   2.0000      -0.452308       -12.3079
 182   2.0000      -0.450594       -12.2613
 183   2.0000      -0.450056       -12.2467
 184   2.0000      -0.417971       -11.3736
 185   2.0000      -0.416187       -11.3250
 186   2.0000      -0.408263       -11.1094
 187   2.0000      -0.407456       -11.0874
 188   2.0000      -0.406424       -11.0593
 189   2.0000      -0.405702       -11.0397
 190   2.0000      -0.402592       -10.9551
 191   2.0000      -0.400439       -10.8965
 192   2.0000      -0.400385       -10.8950
 193   2.0000      -0.399310       -10.8658
 194   2.0000      -0.398825       -10.8526
 195   2.0000      -0.397522       -10.8171
 196   2.0000      -0.392191       -10.6721
 197   2.0000      -0.390735       -10.6324
 198   2.0000      -0.345673        -9.4062
 199   2.0000      -0.342432        -9.3180
 200   2.0000      -0.339120        -9.2279
 201   2.0000      -0.337970        -9.1966
 202   2.0000      -0.302357        -8.2276
 203   2.0000      -0.300033        -8.1643
 204   0.0000       0.120932         3.2907
 205   0.0000       0.122317         3.3284
 206   0.0000       0.126823         3.4510
 207   0.0000       0.128358         3.4928
 208   0.0000       0.139246         3.7891

MULLIKEN ATOMIC CHARGES
-----------------------
   0 C :    0.263505
   1 C :   -0.105595
   2 H :    0.078198
   3 C :   -0.091188
   4 H :    0.077559
   5 C :    0.305694
   6 C :   -0.328211
   7 H :    0.062477
   8 C :   -0.096110
   9 H :    0.080593
  10 C :   -0.077683
  11 H :    0.085488
  12 C :   -0.351974
  13 H :    0.063118
  14 C :    0.434369
  15 C :   -0.626305
  16 H :    0.143524
  17 H :    0.094876
  18 C :    0.343899
  19 H :    0.106690
  20 C :   -0.380391
  21 H :    0.074858
  22 H :    0.090545
  23 C :    0.356063
  24 H :    0.094076
  25 C :   -0.446311
  26 H :    0.087530
  27 H :    0.081593
  28 C :   -0.470308
  29 H :    0.092672
  30 H :    0.083669
  31 C :    0.363836
  32 H :    0.097077
  33 C :   -0.508288
  34 H :    0.091152
  35 H :    0.095911
  36 C :   -0.434954
  37 H :    0.077953
  38 H :    0.089636
  39 C :    0.472843
  40 C :   -0.703244
  41 H :    0.092964
  42 H :    0.131679
  43 C :    0.320264
  44 H :    0.133160
  45 C :   -0.383060
  46 H :    0.090175
  47 H :    0.076907
  48 C :    0.352847
  49 H :    0.093829
  50 C :   -0.435884
  51 H :    0.087173
  52 H :    0.078981
  53 C :   -0.466748
  54 H :    0.082516
  55 H :    0.090780
  56 C :    0.344295
  57 H :    0.095759
  58 C :   -0.457177
  59 H :    0.082827
  60 H :    0.094906
  61 C :   -0.439755
  62 H :    0.079331
  63 H :    0.090366
  64 C :    0.313007
  65 C :   -0.173051
  66 H :    0.136084
  67 C :   -0.199913
  68 H :    0.134272
  69 C :    0.381421
  70 C :   -0.372187
  71 H :    0.062167
  72 C :   -0.040204
  73 H :    0.065174
  74 C :   -0.062881
  75 H :    0.065023
  76 C :   -0.369181
  77 H :    0.061698
  78 C :    0.464653
  79 C :   -0.481887
  80 H :    0.095909
  81 H :    0.094095
  82 C :    0.335002
  83 H :    0.096676
  84 C :   -0.385618
  85 H :    0.074314
  86 H :    0.091113
  87 C :    0.321661
  88 H :    0.141799
  89 C :   -0.624451
  90 H :    0.108472
  91 H :    0.081178
  92 C :   -0.463742
  93 H :    0.088544
  94 H :    0.086304
  95 C :    0.351756
  96 H :    0.097811
  97 C :   -0.446514
  98 H :    0.078208
  99 H :    0.093408
 100 C :   -0.466146
 101 H :    0.085687
 102 H :    0.091643
 103 C :    0.351873
 104 C :   -0.484057
 105 H :    0.089943
 106 H :    0.099126
 107 C :    0.332813
 108 H :    0.096733
 109 C :   -0.385416
 110 H :    0.090698
 111 H :    0.076216
 112 C :    0.377841
 113 H :    0.106662
 114 C :   -0.554637
 115 H :    0.088224
 116 H :    0.114950
 117 C :   -0.448605
 118 H :    0.085623
 119 H :    0.085906
 120 C :    0.385653
 121 H :    0.094992
 122 C :   -0.440740
 123 H :    0.074355
 124 H :    0.092818
 125 C :   -0.531336
 126 H :    0.089844
 127 H :    0.094240
Sum of atomic charges:   -0.0000000

E(0)                                       ...  -2162.557747779
E(0)                                       ...  -2162.557747779
E(CORR)(strong-pairs)                      ...     -0.010419109
E(CORR)(weak-pairs)                        ...     -0.005411873
E(CORR)(corrected)                         ...     -0.015830982
E(TOT)                                     ...  -2162.573578761

LOEWDIN ATOMIC CHARGES
----------------------
   0 C :   -0.062294
   1 C :   -0.083737
   2 H :    0.093065
   3 C :   -0.077451
   4 H :    0.091820
   5 C :   -0.057298
   6 C :   -0.066776
   7 H :    0.091648
   8 C :   -0.090888
   9 H :    0.091175
  10 C :   -0.093307
  11 H :    0.090913
  12 C :   -0.066218
  13 H :    0.092449
  14 C :   -0.155591
  15 C :   -0.125536
  16 H :    0.101347
  17 H :    0.102610
  18 C :   -0.168279
  19 H :    0.101884
  20 C :   -0.152803
  21 H :    0.097416
  22 H :    0.097374
  23 C :   -0.157655
  24 H :    0.102037
  25 C :   -0.123849
  26 H :    0.098612
  27 H :    0.098696
  28 C :   -0.119344
  29 H :    0.099165
  30 H :    0.096770
  31 C :   -0.161516
  32 H :    0.102037
  33 C :   -0.141662
  34 H :    0.093927
  35 H :    0.095010
  36 C :   -0.144774
  37 H :    0.094719
  38 H :    0.094735
  39 C :   -0.164580
  40 C :   -0.125946
  41 H :    0.102316
  42 H :    0.099778
  43 C :   -0.159986
  44 H :    0.101183
  45 C :   -0.144192
  46 H :    0.094991
  47 H :    0.095087
  48 C :   -0.163283
  49 H :    0.102825
  50 C :   -0.123678
  51 H :    0.100169
  52 H :    0.098552
  53 C :   -0.118318
  54 H :    0.097184
  55 H :    0.099760
  56 C :   -0.163703
  57 H :    0.103181
  58 C :   -0.150534
  59 H :    0.094152
  60 H :    0.096632
  61 C :   -0.145602
  62 H :    0.095225
  63 H :    0.095542
  64 C :   -0.062710
  65 C :   -0.083944
  66 H :    0.092350
  67 C :   -0.077720
  68 H :    0.090171
  69 C :   -0.057919
  70 C :   -0.064542
  71 H :    0.091604
  72 C :   -0.091745
  73 H :    0.090493
  74 C :   -0.094742
  75 H :    0.090668
  76 C :   -0.063937
  77 H :    0.092352
  78 C :   -0.155331
  79 C :   -0.125212
  80 H :    0.101955
  81 H :    0.102170
  82 C :   -0.165600
  83 H :    0.103416
  84 C :   -0.152783
  85 H :    0.097381
  86 H :    0.097364
  87 C :   -0.159429
  88 H :    0.102191
  89 C :   -0.125246
  90 H :    0.098299
  91 H :    0.099345
  92 C :   -0.119420
  93 H :    0.099028
  94 H :    0.096681
  95 C :   -0.161526
  96 H :    0.102011
  97 C :   -0.141197
  98 H :    0.094306
  99 H :    0.094481
 100 C :   -0.146482
 101 H :    0.092830
 102 H :    0.095250
 103 C :   -0.164663
 104 C :   -0.123870
 105 H :    0.101681
 106 H :    0.101108
 107 C :   -0.157837
 108 H :    0.101479
 109 C :   -0.144361
 110 H :    0.094921
 111 H :    0.095040
 112 C :   -0.165255
 113 H :    0.101784
 114 C :   -0.123526
 115 H :    0.100340
 116 H :    0.098931
 117 C :   -0.118436
 118 H :    0.097047
 119 H :    0.099732
 120 C :   -0.163461
 121 H :    0.103148
 122 C :   -0.149275
 123 H :    0.095735
 124 H :    0.096248
 125 C :   -0.146640
 126 H :    0.094853
 127 H :    0.096167

  Mayer bond orders larger than 0.100000
B(  0-C ,  1-C ) :   1.9573 B(  0-C , 12-C ) :   1.0138 B(  0-C , 14-C ) :   0.8424
B(  1-C ,  2-H ) :   0.9869 B(  1-C ,  3-C ) :   0.8652 B(  3-C ,  4-H ) :   0.9932
B(  3-C ,  5-C ) :   1.9320 B(  5-C ,  6-C ) :   0.9899 B(  5-C , 39-C ) :   0.8424
B(  6-C ,  7-H ) :   1.0096 B(  6-C ,  8-C ) :   1.9753 B(  8-C ,  9-H ) :   0.9857
B(  8-C , 10-C ) :   0.9603 B( 10-C , 11-H ) :   0.9764 B( 10-C , 12-C ) :   1.9617
B( 12-C , 13-H ) :   1.0128 B( 14-C , 15-C ) :   0.8691 B( 14-C , 25-C ) :   0.9723
B( 14-C , 28-C ) :   0.8970 B( 15-C , 16-H ) :   0.9753 B( 15-C , 17-H ) :   0.9956
B( 15-C , 18-C ) :   0.8685 B( 15-C , 20-C ) :   0.1168 B( 15-C , 25-C ) :   0.1489
B( 15-C , 28-C ) :   0.1367 B( 15-C , 33-C ) :   0.1421 B( 18-C , 19-H ) :   0.9719
B( 18-C , 20-C ) :   0.8879 B( 18-C , 33-C ) :   0.8486 B( 20-C , 21-H ) :   0.9963
B( 20-C , 22-H ) :   0.9977 B( 20-C , 23-C ) :   0.9008 B( 20-C , 25-C ) :   0.1095
B( 20-C , 33-C ) :   0.1140 B( 20-C , 36-C ) :   0.1195 B( 23-C , 24-H ) :   0.9713
B( 23-C , 25-C ) :   0.8931 B( 23-C , 36-C ) :   0.8743 B( 25-C , 26-H ) :   0.9981
B( 25-C , 27-H ) :   0.9932 B( 25-C , 28-C ) :   0.1045 B( 25-C , 36-C ) :   0.1067
B( 28-C , 29-H ) :   0.9940 B( 28-C , 30-H ) :   0.9887 B( 28-C , 31-C ) :   0.9070
B( 28-C , 33-C ) :   0.1184 B( 31-C , 32-H ) :   0.9722 B( 31-C , 33-C ) :   0.8574
B( 31-C , 36-C ) :   0.8907 B( 33-C , 34-H ) :   0.9807 B( 33-C , 35-H ) :   0.9958
B( 33-C , 36-C ) :   0.1225 B( 36-C , 37-H ) :   0.9962 B( 36-C , 38-H ) :   0.9952
B( 39-C , 40-C ) :   0.8686 B( 39-C , 50-C ) :   0.9524 B( 39-C , 53-C ) :   0.8544
B( 40-C , 41-H ) :   0.9905 B( 40-C , 42-H ) :   0.9713 B( 40-C , 43-C ) :   0.8594
B( 40-C , 45-C ) :   0.1153 B( 40-C , 50-C ) :   0.1521 B( 40-C , 53-C ) :   0.1601
B( 40-C , 58-C ) :   0.1332 B( 43-C , 44-H ) :   0.9623 B( 43-C , 45-C ) :   0.8853
B( 43-C , 58-C ) :   0.8675 B( 45-C , 46-H ) :   0.9995 B( 45-C , 47-H ) :   0.9962
B( 45-C , 48-C ) :   0.9047 B( 45-C , 50-C ) :   0.1007 B( 45-C , 58-C ) :   0.1108
B( 45-C , 61-C ) :   0.1184 B( 48-C , 49-H ) :   0.9698 B( 48-C , 50-C ) :   0.9052
B( 48-C , 61-C ) :   0.8636 B( 50-C , 51-H ) :   0.9951 B( 50-C , 52-H ) :   0.9931
B( 50-C , 53-C ) :   0.1259 B( 50-C , 61-C ) :   0.1122 B( 53-C , 54-H ) :   0.9927
B( 53-C , 55-H ) :   0.9928 B( 53-C , 56-C ) :   0.9108 B( 53-C , 58-C ) :   0.1096
B( 53-C , 61-C ) :   0.1001 B( 56-C , 57-H ) :   0.9714 B( 56-C , 58-C ) :   0.8792
B( 56-C , 61-C ) :   0.8887 B( 58-C , 59-H ) :   0.9940 B( 58-C , 60-H ) :   0.9970
B( 58-C , 61-C ) :   0.1157 B( 61-C , 62-H ) :   0.9970 B( 61-C , 63-H ) :   0.9971
B( 64-C , 65-C ) :   1.9156 B( 64-C , 76-C ) :   1.0079 B( 64-C , 78-C ) :   0.8325
B( 65-C , 66-H ) :   0.9494 B( 65-C , 67-C ) :   0.9132 B( 67-C , 68-H ) :   0.9552
B( 67-C , 69-C ) :   1.8920 B( 69-C , 70-C ) :   0.9807 B( 69-C ,103-C ) :   0.8349
B( 70-C , 71-H ) :   1.0020 B( 70-C , 72-C ) :   2.0008 B( 72-C , 73-H ) :   0.9886
B( 72-C , 74-C ) :   0.9152 B( 74-C , 75-H ) :   0.9897 B( 74-C , 76-C ) :   1.9959
B( 76-C , 77-H ) :   1.0038 B( 78-C , 79-C ) :   0.8524 B( 78-C , 89-C ) :   0.9981
B( 78-C , 92-C ) :   0.8654 B( 79-C , 80-H ) :   0.9936 B( 79-C , 81-H ) :   0.9944
B( 79-C , 82-C ) :   0.9069 B( 79-C , 84-C ) :   0.1048 B( 79-C , 89-C ) :   0.1704
B( 79-C , 97-C ) :   0.1170 B( 82-C , 83-H ) :   0.9731 B( 82-C , 84-C ) :   0.9193
B( 82-C , 97-C ) :   0.8543 B( 84-C , 85-H ) :   0.9956 B( 84-C , 86-H ) :   0.9991
B( 84-C , 87-C ) :   0.8826 B( 84-C , 89-C ) :   0.1241 B( 84-C , 97-C ) :   0.1199
B( 84-C ,100-C ) :   0.1120 B( 87-C , 88-H ) :   0.9540 B( 87-C , 89-C ) :   0.8672
B( 87-C ,100-C ) :   0.8691 B( 89-C , 90-H ) :   0.9912 B( 89-C , 91-H ) :   0.9830
B( 89-C , 92-C ) :   0.1575 B( 89-C ,100-C ) :   0.1219 B( 92-C , 93-H ) :   0.9952
B( 92-C , 94-H ) :   0.9870 B( 92-C , 95-C ) :   0.9183 B( 92-C , 97-C ) :   0.1073
B( 92-C ,100-C ) :   0.1027 B( 95-C , 96-H ) :   0.9712 B( 95-C , 97-C ) :   0.8735
B( 95-C ,100-C ) :   0.8900 B( 97-C , 98-H ) :   0.9978 B( 97-C , 99-H ) :   0.9978
B( 97-C ,100-C ) :   0.1153 B(100-C ,101-H ) :   0.9908 B(100-C ,102-H ) :   0.9958
B(103-C ,104-C ) :   0.9068 B(103-C ,114-C ) :   0.9832 B(103-C ,117-C ) :   0.8885
B(104-C ,105-H ) :   0.9923 B(104-C ,106-H ) :   0.9910 B(104-C ,107-C ) :   0.8949
B(104-C ,109-C ) :   0.1056 B(104-C ,114-C ) :   0.1435 B(104-C ,122-C ) :   0.1068
B(107-C ,108-H ) :   0.9737 B(107-C ,109-C ) :   0.9056 B(107-C ,122-C ) :   0.8791
B(109-C ,110-H ) :   0.9977 B(109-C ,111-H ) :   0.9972 B(109-C ,112-C ) :   0.8705
B(109-C ,114-C ) :   0.1217 B(109-C ,122-C ) :   0.1163 B(109-C ,125-C ) :   0.1198
B(112-C ,113-H ) :   0.9696 B(112-C ,114-C ) :   0.8684 B(112-C ,125-C ) :   0.8499
B(114-C ,115-H ) :   1.0018 B(114-C ,116-H ) :   0.9850 B(114-C ,117-C ) :   0.1514
B(114-C ,125-C ) :   0.1387 B(117-C ,118-H ) :   0.9911 B(117-C ,119-H ) :   0.9930
B(117-C ,120-C ) :   0.8985 B(117-C ,122-C ) :   0.1057 B(117-C ,125-C ) :   0.1156
B(120-C ,121-H ) :   0.9721 B(120-C ,122-C ) :   0.8714 B(120-C ,125-C ) :   0.8624
B(122-C ,123-H ) :   0.9976 B(122-C ,124-H ) :   0.9962 B(122-C ,125-C ) :   0.1337
B(125-C ,126-H ) :   0.9785 B(125-C ,127-H ) :   0.9949

FINAL SINGLE POINT ENERGY     -2162.573578761285

DIPOLE MOMENT
-------------
                                X             Y             Z
Electronic contribution:     -3.39234       1.97880       0.03417
Nuclear contribution   :      3.30110      -1.90643      -0.05962
                        -----------------------------------------
Total Dipole Moment    :     -0.09125       0.07237      -0.02544
                        -----------------------------------------
Magnitude (a.u.)       :      0.11921
Magnitude (Debye)      :      0.30301

Rotational constants in cm-1:     0.001740     0.001251     0.000775
Rotational constants in MHz :    52.177007    37.510504    23.225496

                             ****ORCA TERMINATED NORMALLY****
TOTAL RUN TIME: 0 days 0 hours 25 minutes 49 seconds 629 msec
