                         Program Version 6.0  -  CURRENT   -
|  1> ! DLPNO-CCSD RIJCOSX def2-TZVP(-f) def2/J def2-tzvp/C verytightscf LED
|  2>
|  3> %pal nprocs 16 end
|  4> %maxcore 8000
|  5> %scf maxiter 999 end
|  6> %mdci TCutPairs 1e-5 printlevel 3
|  7>       LocMet FB LocTol 1.0e-6 LocRandom 1
|  8>       HFFragInter {1 1} {2 2}
|  9>       end
| 10>
| 11> *xyz 0 1
| 12> C(1)       3.959814    2.561396    5.671998
| 13> C(1)       5.124688    2.711507    6.307297
| 14> H(1)       5.910980    2.624495    5.781307
| 15> C(1)       5.318750    3.001413    7.756160
| 16> H(1)       5.764958    2.338040    8.269299
| 17> C(1)       4.922108    4.116628    8.413564
| 18> C(1)       4.187615    5.217888    7.728235
| 19> H(1)       4.592983    6.076768    7.705738
| 20> C(1)       2.996500    5.073177    7.144286
| 21> H(1)       2.598240    5.854076    6.778112
| 22> C(1)       2.240560    3.812194    7.014673
| 23> H(1)       1.374630    3.783577    7.404357
| 24> C(1)       2.667365    2.709888    6.398299
| 25> H(1)       2.096330    1.951116    6.424481
| 26> C(1)       3.855528    2.189510    4.180727
| 27> C(1)       3.206858    3.365610    3.443570
| 28> H(1)       2.312363    3.542338    3.829289
| 29> H(1)       3.759862    4.177210    3.568431
| 30> C(1)       3.066693    3.071653    1.950331
| 31> H(1)       2.641663    3.853971    1.494983
| 32> C(1)       4.418385    2.801990    1.331483
| 33> H(1)       4.992310    3.603436    1.423104
| 34> H(1)       4.310148    2.608715    0.366596
| 35> C(1)       5.082741    1.613149    2.021845
| 36> H(1)       5.984031    1.450291    1.620378
| 37> C(1)       5.232054    1.929266    3.531282
| 38> H(1)       5.671955    1.167507    3.985505
| 39> H(1)       5.806469    2.727454    3.645513
| 40> C(1)       2.984490    0.916534    3.972879
| 41> H(1)       3.414105    0.144085    4.418806
| 42> H(1)       2.094116    1.053032    4.383598
| 43> C(1)       2.820046    0.619609    2.471962
| 44> H(1)       2.244245   -0.189108    2.351826
| 45> C(1)       2.172758    1.820210    1.768524
| 46> H(1)       1.276608    1.990313    2.153342
| 47> H(1)       2.063503    1.624174    0.804312
| 48> C(1)       4.205273    0.362816    1.851089
| 49> H(1)       4.633831   -0.410619    2.296313
| 50> H(1)       4.107182    0.151182    0.888958
| 51> C(1)       5.254459    4.351654    9.886415
| 52> C(1)       3.942843    4.629858   10.626355
| 53> H(1)       3.337150    3.853519   10.523739
| 54> H(1)       3.499931    5.418498   10.223876
| 55> C(1)       4.188483    4.891347   12.124403
| 56> H(1)       3.319013    5.074687   12.583126
| 57> C(1)       4.866138    3.667012   12.762937
| 58> H(1)       5.027716    3.836876   13.724759
| 59> H(1)       4.275091    2.876862   12.682734
| 60> C(1)       6.198220    3.393588   12.052721
| 61> H(1)       6.631672    2.589020   12.458659
| 62> C(1)       5.931826    3.131816   10.562519
| 63> H(1)       5.347601    2.338169   10.468170
| 64> H(1)       6.788160    2.937070   10.105455
| 65> C(1)       6.192447    5.559403   10.079583
| 66> H(1)       5.786533    6.362172    9.666193
| 67> H(1)       7.054843    5.383533    9.626344
| 68> C(1)       6.443690    5.823950   11.579544
| 69> H(1)       7.040792    6.620087   11.677689
| 70> C(1)       5.124238    6.098831   12.281970
| 71> H(1)       4.699544    6.903322   11.891414
| 72> H(1)       5.287472    6.271327   13.243060
| 73> C(1)       7.120822    4.604047   12.215462
| 74> H(1)       7.988732    4.429725   11.772262
| 75> H(1)       7.289890    4.773633   13.176074
| 76> C(2)       9.674114    5.786946    5.671998
| 77> C(2)      10.838988    5.937057    6.307297
| 78> H(2)      11.625280    5.850045    5.781307
| 79> C(2)      11.033050    6.226963    7.756160
| 80> H(2)      11.479258    5.563590    8.269299
| 81> C(2)      10.636408    7.342178    8.413564
| 82> C(2)       9.901915    8.443438    7.728235
| 83> H(2)      10.307283    9.302318    7.705738
| 84> C(2)       8.710800    8.298727    7.144286
| 85> H(2)       8.312540    9.079626    6.778112
| 86> C(2)       7.954860    7.037744    7.014673
| 87> H(2)       7.088930    7.009127    7.404357
| 88> C(2)       8.381665    5.935438    6.398299
| 89> H(2)       7.810630    5.176666    6.424481
| 90> C(2)       9.569828    5.415060    4.180727
| 91> C(2)       8.921158    6.591160    3.443570
| 92> H(2)       8.026663    6.767888    3.829289
| 93> H(2)       9.474162    7.402760    3.568431
| 94> C(2)       8.780993    6.297203    1.950331
| 95> H(2)       8.355963    7.079521    1.494983
| 96> C(2)      10.132685    6.027540    1.331483
| 97> H(2)      10.706610    6.828986    1.423104
| 98> H(2)      10.024448    5.834265    0.366596
| 99> C(2)      10.797041    4.838699    2.021845
|100> H(2)      11.698331    4.675841    1.620378
|101> C(2)      10.946354    5.154816    3.531282
|102> H(2)      11.386255    4.393057    3.985505
|103> H(2)      11.520769    5.953004    3.645513
|104> C(2)       8.698790    4.142084    3.972879
|105> H(2)       9.128405    3.369635    4.418806
|106> H(2)       7.808416    4.278582    4.383598
|107> C(2)       8.534346    3.845159    2.471962
|108> H(2)       7.958545    3.036442    2.351826
|109> C(2)       7.887058    5.045760    1.768524
|110> H(2)       6.990908    5.215863    2.153342
|111> H(2)       7.777803    4.849724    0.804312
|112> C(2)       9.919573    3.588366    1.851089
|113> H(2)      10.348131    2.814931    2.296313
|114> H(2)       9.821482    3.376732    0.888958
|115> C(2)      10.968759    7.577204    9.886415
|116> C(2)       9.657143    7.855408   10.626355
|117> H(2)       9.051450    7.079069   10.523739
|118> H(2)       9.214231    8.644048   10.223876
|119> C(2)       9.902783    8.116897   12.124403
|120> H(2)       9.033313    8.300237   12.583126
|121> C(2)      10.580438    6.892562   12.762937
|122> H(2)      10.742016    7.062426   13.724759
|123> H(2)       9.989391    6.102412   12.682734
|124> C(2)      11.912520    6.619138   12.052721
|125> H(2)      12.345972    5.814570   12.458659
|126> C(2)      11.646126    6.357366   10.562519
|127> H(2)      11.061901    5.563719   10.468170
|128> H(2)      12.502460    6.162620   10.105455
|129> C(2)      11.906747    8.784953   10.079583
|130> H(2)      11.500833    9.587722    9.666193
|131> H(2)      12.769143    8.609083    9.626344
|132> C(2)      12.157990    9.049500   11.579544
|133> H(2)      12.755092    9.845637   11.677689
|134> C(2)      10.838538    9.324381   12.281970
|135> H(2)      10.413844   10.128872   11.891414
|136> H(2)      11.001772    9.496877   13.243060
|137> C(2)      12.835122    7.829597   12.215462
|138> H(2)      13.703032    7.655275   11.772262
|139> H(2)      13.004190    7.999183   13.176074
|140> *
|141>
|142>                          ****END OF INPUT****

CARTESIAN COORDINATES (ANGSTROEM)
---------------------------------
  C      3.959814    2.561396    5.671998
  C      5.124688    2.711507    6.307297
  H      5.910980    2.624495    5.781307
  C      5.318750    3.001413    7.756160
  H      5.764958    2.338040    8.269299
  C      4.922108    4.116628    8.413564
  C      4.187615    5.217888    7.728235
  H      4.592983    6.076768    7.705738
  C      2.996500    5.073177    7.144286
  H      2.598240    5.854076    6.778112
  C      2.240560    3.812194    7.014673
  H      1.374630    3.783577    7.404357
  C      2.667365    2.709888    6.398299
  H      2.096330    1.951116    6.424481
  C      3.855528    2.189510    4.180727
  C      3.206858    3.365610    3.443570
  H      2.312363    3.542338    3.829289
  H      3.759862    4.177210    3.568431
  C      3.066693    3.071653    1.950331
  H      2.641663    3.853971    1.494983
  C      4.418385    2.801990    1.331483
  H      4.992310    3.603436    1.423104
  H      4.310148    2.608715    0.366596
  C      5.082741    1.613149    2.021845
  H      5.984031    1.450291    1.620378
  C      5.232054    1.929266    3.531282
  H      5.671955    1.167507    3.985505
  H      5.806469    2.727454    3.645513
  C      2.984490    0.916534    3.972879
  H      3.414105    0.144085    4.418806
  H      2.094116    1.053032    4.383598
  C      2.820046    0.619609    2.471962
  H      2.244245   -0.189108    2.351826
  C      2.172758    1.820210    1.768524
  H      1.276608    1.990313    2.153342
  H      2.063503    1.624174    0.804312
  C      4.205273    0.362816    1.851089
  H      4.633831   -0.410619    2.296313
  H      4.107182    0.151182    0.888958
  C      5.254459    4.351654    9.886415
  C      3.942843    4.629858   10.626355
  H      3.337150    3.853519   10.523739
  H      3.499931    5.418498   10.223876
  C      4.188483    4.891347   12.124403
  H      3.319013    5.074687   12.583126
  C      4.866138    3.667012   12.762937
  H      5.027716    3.836876   13.724759
  H      4.275091    2.876862   12.682734
  C      6.198220    3.393588   12.052721
  H      6.631672    2.589020   12.458659
  C      5.931826    3.131816   10.562519
  H      5.347601    2.338169   10.468170
  H      6.788160    2.937070   10.105455
  C      6.192447    5.559403   10.079583
  H      5.786533    6.362172    9.666193
  H      7.054843    5.383533    9.626344
  C      6.443690    5.823950   11.579544
  H      7.040792    6.620087   11.677689
  C      5.124238    6.098831   12.281970
  H      4.699544    6.903322   11.891414
  H      5.287472    6.271327   13.243060
  C      7.120822    4.604047   12.215462
  H      7.988732    4.429725   11.772262
  H      7.289890    4.773633   13.176074
  C      9.674114    5.786946    5.671998
  C     10.838988    5.937057    6.307297
  H     11.625280    5.850045    5.781307
  C     11.033050    6.226963    7.756160
  H     11.479258    5.563590    8.269299
  C     10.636408    7.342178    8.413564
  C      9.901915    8.443438    7.728235
  H     10.307283    9.302318    7.705738
  C      8.710800    8.298727    7.144286
  H      8.312540    9.079626    6.778112
  C      7.954860    7.037744    7.014673
  H      7.088930    7.009127    7.404357
  C      8.381665    5.935438    6.398299
  H      7.810630    5.176666    6.424481
  C      9.569828    5.415060    4.180727
  C      8.921158    6.591160    3.443570
  H      8.026663    6.767888    3.829289
  H      9.474162    7.402760    3.568431
  C      8.780993    6.297203    1.950331
  H      8.355963    7.079521    1.494983
  C     10.132685    6.027540    1.331483
  H     10.706610    6.828986    1.423104
  H     10.024448    5.834265    0.366596
  C     10.797041    4.838699    2.021845
  H     11.698331    4.675841    1.620378
  C     10.946354    5.154816    3.531282
  H     11.386255    4.393057    3.985505
  H     11.520769    5.953004    3.645513
  C      8.698790    4.142084    3.972879
  H      9.128405    3.369635    4.418806
  H      7.808416    4.278582    4.383598
  C      8.534346    3.845159    2.471962
  H      7.958545    3.036442    2.351826
  C      7.887058    5.045760    1.768524
  H      6.990908    5.215863    2.153342
  H      7.777803    4.849724    0.804312
  C      9.919573    3.588366    1.851089
  H     10.348131    2.814931    2.296313
  H      9.821482    3.376732    0.888958
  C     10.968759    7.577204    9.886415
  C      9.657143    7.855408   10.626355
  H      9.051450    7.079069   10.523739
  H      9.214231    8.644048   10.223876
  C      9.902783    8.116897   12.124403
  H      9.033313    8.300237   12.583126
  C     10.580438    6.892562   12.762937
  H     10.742016    7.062426   13.724759
  H      9.989391    6.102412   12.682734
  C     11.912520    6.619138   12.052721
  H     12.345972    5.814570   12.458659
  C     11.646126    6.357366   10.562519
  H     11.061901    5.563719   10.468170
  H     12.502460    6.162620   10.105455
  C     11.906747    8.784953   10.079583
  H     11.500833    9.587722    9.666193
  H     12.769143    8.609083    9.626344
  C     12.157990    9.049500   11.579544
  H     12.755092    9.845637   11.677689
  C     10.838538    9.324381   12.281970
  H     10.413844   10.128872   11.891414
  H     11.001772    9.496877   13.243060
  C     12.835122    7.829597   12.215462
  H     13.703032    7.655275   11.772262
  H     13.004190    7.999183   13.176074

 Total Charge           Charge          ....    0
 Multiplicity           Mult            ....    1
 Number of Electrons    NEL             ....  408
 Basis Dimension        Dim             .... 1776

ORBITAL ENERGIES
----------------

  NO   OCC          E(Eh)            E(eV)
   0   2.0000     -11.222873      -305.3899
   1   2.0000     -11.221683      -305.3575
   2   2.0000     -11.220813      -305.3338
   3   2.0000     -11.219646      -305.3021
   4   2.0000     -11.218703      -305.2764
   5   2.0000     -11.217972      -305.2565
   6   2.0000     -11.216401      -305.2138
   7   2.0000     -11.215913      -305.2005
   8   2.0000     -11.206997      -304.9579
   9   2.0000     -11.205884      -304.9276
  10   2.0000     -11.205122      -304.9069
  11   2.0000     -11.205101      -304.9063
  12   2.0000     -11.204021      -304.8769
  13   2.0000     -11.203397      -304.8599
  14   2.0000     -11.202482      -304.8350
  15   2.0000     -11.200708      -304.7868
  16   2.0000     -11.197970      -304.7123
  17   2.0000     -11.196889      -304.6828
  18   2.0000     -11.195526      -304.6457
  19   2.0000     -11.195008      -304.6317
  20   2.0000     -11.194180      -304.6091
  21   2.0000     -11.193669      -304.5952
  22   2.0000     -11.193376      -304.5873
  23   2.0000     -11.192960      -304.5759
  24   2.0000     -11.192502      -304.5635
  25   2.0000     -11.192250      -304.5566
  26   2.0000     -11.191573      -304.5382
  27   2.0000     -11.191556      -304.5377
  28   2.0000     -11.190843      -304.5183
  29   2.0000     -11.190714      -304.5148
  30   2.0000     -11.189932      -304.4935
  31   2.0000     -11.188869      -304.4646
  32   2.0000     -11.179079      -304.1982
  33   2.0000     -11.177498      -304.1552
  34   2.0000     -11.177223      -304.1477
  35   2.0000     -11.175957      -304.1132
  36   2.0000     -11.175219      -304.0932
  37   2.0000     -11.174751      -304.0804
  38   2.0000     -11.174636      -304.0773
  39   2.0000     -11.174627      -304.0770
  40   2.0000     -11.174209      -304.0657
  41   2.0000     -11.173870      -304.0565
  42   2.0000     -11.173715      -304.0522
  43   2.0000     -11.173328      -304.0417
  44   2.0000     -11.173272      -304.0402
  45   2.0000     -11.172418      -304.0169
  46   2.0000     -11.172299      -304.0137
  47   2.0000     -11.172041      -304.0067
  48   2.0000     -11.171809      -304.0004
  49   2.0000     -11.171182      -303.9833
  50   2.0000     -11.170988      -303.9780
  51   2.0000     -11.170677      -303.9696
  52   2.0000     -11.170567      -303.9666
  53   2.0000     -11.170332      -303.9602
  54   2.0000     -11.169859      -303.9473
  55   2.0000     -11.169606      -303.9404
  56   2.0000      -1.169482       -31.8232
  57   2.0000      -1.168999       -31.8101
  58   2.0000      -1.166918       -31.7534
  59   2.0000      -1.166381       -31.7388
  60   2.0000      -1.127268       -30.6745
  61   2.0000      -1.125550       -30.6278
  62   2.0000      -1.086240       -29.5581
  63   2.0000      -1.085095       -29.5269
  64   2.0000      -1.067507       -29.0484
  65   2.0000      -1.065959       -29.0062
  66   2.0000      -1.047259       -28.4974
  67   2.0000      -1.046085       -28.4654
  68   2.0000      -1.045191       -28.4411
  69   2.0000      -1.044504       -28.4224
  70   2.0000      -1.043584       -28.3974
  71   2.0000      -1.043142       -28.3853
  72   2.0000      -1.042004       -28.3544
  73   2.0000      -1.041619       -28.3439
  74   2.0000      -1.028156       -27.9776
  75   2.0000      -1.027170       -27.9507
  76   2.0000      -1.020928       -27.7809
  77   2.0000      -1.019381       -27.7388
  78   2.0000      -0.952206       -25.9108
  79   2.0000      -0.950797       -25.8725
  80   2.0000      -0.933053       -25.3897
  81   2.0000      -0.932097       -25.3637
  82   2.0000      -0.931307       -25.3421
  83   2.0000      -0.930997       -25.3337
  84   2.0000      -0.930208       -25.3122
  85   2.0000      -0.929514       -25.2934
  86   2.0000      -0.927608       -25.2415
  87   2.0000      -0.927038       -25.2260
  88   2.0000      -0.893708       -24.3190
  89   2.0000      -0.891973       -24.2718
  90   2.0000      -0.825356       -22.4591
  91   2.0000      -0.824786       -22.4436
  92   2.0000      -0.821880       -22.3645
  93   2.0000      -0.820965       -22.3396
  94   2.0000      -0.815226       -22.1834
  95   2.0000      -0.814707       -22.1693
  96   2.0000      -0.814227       -22.1563
  97   2.0000      -0.813354       -22.1325
  98   2.0000      -0.811622       -22.0854
  99   2.0000      -0.810676       -22.0596
 100   2.0000      -0.800354       -21.7787
 101   2.0000      -0.799669       -21.7601
 102   2.0000      -0.777129       -21.1468
 103   2.0000      -0.775038       -21.0898
 104   2.0000      -0.750471       -20.4214
 105   2.0000      -0.748497       -20.3676
 106   2.0000      -0.724128       -19.7045
 107   2.0000      -0.723121       -19.6771
 108   2.0000      -0.721156       -19.6236
 109   2.0000      -0.720620       -19.6091
 110   2.0000      -0.688953       -18.7474
 111   2.0000      -0.687093       -18.6968
 112   2.0000      -0.684233       -18.6189
 113   2.0000      -0.681615       -18.5477
 114   2.0000      -0.654328       -17.8052
 115   2.0000      -0.652721       -17.7614
 116   2.0000      -0.646679       -17.5970
 117   2.0000      -0.645321       -17.5601
 118   2.0000      -0.639458       -17.4005
 119   2.0000      -0.638517       -17.3749
 120   2.0000      -0.638276       -17.3684
 121   2.0000      -0.637585       -17.3496
 122   2.0000      -0.636912       -17.3312
 123   2.0000      -0.636452       -17.3187
 124   2.0000      -0.636280       -17.3141
 125   2.0000      -0.636009       -17.3067
 126   2.0000      -0.635556       -17.2943
 127   2.0000      -0.634961       -17.2782
 128   2.0000      -0.634222       -17.2580
 129   2.0000      -0.632952       -17.2235
 130   2.0000      -0.624378       -16.9902
 131   2.0000      -0.621579       -16.9140
 132   2.0000      -0.612454       -16.6657
 133   2.0000      -0.611101       -16.6289
 134   2.0000      -0.597385       -16.2557
 135   2.0000      -0.596453       -16.2303
 136   2.0000      -0.581832       -15.8325
 137   2.0000      -0.581283       -15.8175
 138   2.0000      -0.578226       -15.7343
 139   2.0000      -0.577595       -15.7172
 140   2.0000      -0.575878       -15.6704
 141   2.0000      -0.575771       -15.6675
 142   2.0000      -0.574322       -15.6281
 143   2.0000      -0.572933       -15.5903
 144   2.0000      -0.571654       -15.5555
 145   2.0000      -0.570581       -15.5263
 146   2.0000      -0.564657       -15.3651
 147   2.0000      -0.563940       -15.3456
 148   2.0000      -0.557888       -15.1809
 149   2.0000      -0.557332       -15.1658
 150   2.0000      -0.554033       -15.0760
 151   2.0000      -0.551313       -15.0020
 152   2.0000      -0.550136       -14.9700
 153   2.0000      -0.549105       -14.9419
 154   2.0000      -0.547896       -14.9090
 155   2.0000      -0.547596       -14.9008
 156   2.0000      -0.544851       -14.8262
 157   2.0000      -0.542981       -14.7753
 158   2.0000      -0.523259       -14.2386
 159   2.0000      -0.521123       -14.1805
 160   2.0000      -0.516943       -14.0667
 161   2.0000      -0.515607       -14.0304
 162   2.0000      -0.484023       -13.1709
 163   2.0000      -0.482195       -13.1212
 164   2.0000      -0.475337       -12.9346
 165   2.0000      -0.474674       -12.9165
 166   2.0000      -0.473104       -12.8738
 167   2.0000      -0.471853       -12.8398
 168   2.0000      -0.465219       -12.6592
 169   2.0000      -0.463788       -12.6203
 170   2.0000      -0.463701       -12.6179
 171   2.0000      -0.462819       -12.5939
 172   2.0000      -0.460140       -12.5211
 173   2.0000      -0.459899       -12.5145
 174   2.0000      -0.459436       -12.5019
 175   2.0000      -0.458634       -12.4801
 176   2.0000      -0.458266       -12.4700
 177   2.0000      -0.457253       -12.4425
 178   2.0000      -0.456823       -12.4308
 179   2.0000      -0.456636       -12.4257
 180   2.0000      -0.453363       -12.3366
 181   2.0000      -0.451944       -12.2980
 182   2.0000      -0.451165       -12.2768
 183   2.0000      -0.450735       -12.2651
 184   2.0000      -0.417363       -11.3570
 185   2.0000      -0.416397       -11.3307
 186   2.0000      -0.407359       -11.0848
 187   2.0000      -0.406722       -11.0675
 188   2.0000      -0.405799       -11.0424
 189   2.0000      -0.405334       -11.0297
 190   2.0000      -0.403341       -10.9755
 191   2.0000      -0.401289       -10.9196
 192   2.0000      -0.399579       -10.8731
 193   2.0000      -0.399176       -10.8621
 194   2.0000      -0.398801       -10.8519
 195   2.0000      -0.398639       -10.8475
 196   2.0000      -0.391839       -10.6625
 197   2.0000      -0.390590       -10.6285
 198   2.0000      -0.344224        -9.3668
 199   2.0000      -0.342317        -9.3149
 200   2.0000      -0.340474        -9.2648
 201   2.0000      -0.338077        -9.1996
 202   2.0000      -0.302547        -8.2327
 203   2.0000      -0.299670        -8.1544
 204   0.0000       0.122944         3.3455
 205   0.0000       0.124580         3.3900
 206   0.0000       0.125355         3.4111
 207   0.0000       0.128335         3.4922
 208   0.0000       0.139611         3.7990

MULLIKEN ATOMIC CHARGES
-----------------------
   0 C :    0.246423
   1 C :   -0.095769
   2 H :    0.127317
   3 C :   -0.097287
   4 H :    0.076562
   5 C :    0.268446
   6 C :   -0.365529
   7 H :    0.071929
   8 C :   -0.037998
   9 H :    0.061303
  10 C :   -0.054613
  11 H :    0.065518
  12 C :   -0.355824
  13 H :    0.064734
  14 C :    0.407821
  15 C :   -0.456692
  16 H :    0.097737
  17 H :    0.091967
  18 C :    0.355596
  19 H :    0.093470
  20 C :   -0.478014
  21 H :    0.096169
  22 H :    0.094396
  23 C :    0.347275
  24 H :    0.101782
  25 C :   -0.565477
  26 H :    0.087456
  27 H :    0.092707
  28 C :   -0.463599
  29 H :    0.093512
  30 H :    0.082626
  31 C :    0.303202
  32 H :    0.098827
  33 C :   -0.430865
  34 H :    0.076456
  35 H :    0.093110
  36 C :   -0.377907
  37 H :    0.075643
  38 H :    0.090197
  39 C :    0.467144
  40 C :   -0.499433
  41 H :    0.092200
  42 H :    0.097022
  43 C :    0.327059
  44 H :    0.097467
  45 C :   -0.454839
  46 H :    0.089913
  47 H :    0.080680
  48 C :    0.473418
  49 H :    0.093863
  50 C :   -0.446691
  51 H :    0.088326
  52 H :    0.075481
  53 C :   -0.654394
  54 H :    0.080892
  55 H :    0.136380
  56 C :    0.288552
  57 H :    0.151285
  58 C :   -0.369007
  59 H :    0.071054
  60 H :    0.092094
  61 C :   -0.545302
  62 H :    0.086265
  63 H :    0.095756
  64 C :    0.261670
  65 C :   -0.113280
  66 H :    0.078487
  67 C :   -0.076730
  68 H :    0.078152
  69 C :    0.304808
  70 C :   -0.337410
  71 H :    0.063991
  72 C :   -0.059774
  73 H :    0.063496
  74 C :   -0.086576
  75 H :    0.121367
  76 C :   -0.452192
  77 H :    0.138899
  78 C :    0.472106
  79 C :   -0.494618
  80 H :    0.095602
  81 H :    0.095726
  82 C :    0.441467
  83 H :    0.095101
  84 C :   -0.456261
  85 H :    0.078402
  86 H :    0.091291
  87 C :    0.346944
  88 H :    0.094270
  89 C :   -0.450184
  90 H :    0.085784
  91 H :    0.084269
  92 C :   -0.628213
  93 H :    0.091814
  94 H :    0.122502
  95 C :    0.268510
  96 H :    0.151044
  97 C :   -0.534858
  98 H :    0.085259
  99 H :    0.096511
 100 C :   -0.364852
 101 H :    0.075734
 102 H :    0.088609
 103 C :    0.395427
 104 C :   -0.625562
 105 H :    0.120863
 106 H :    0.098708
 107 C :    0.334081
 108 H :    0.102898
 109 C :   -0.471468
 110 H :    0.093804
 111 H :    0.096765
 112 C :    0.381307
 113 H :    0.091173
 114 C :   -0.446427
 115 H :    0.086060
 116 H :    0.082468
 117 C :   -0.444023
 118 H :    0.084715
 119 H :    0.086748
 120 C :    0.298510
 121 H :    0.096630
 122 C :   -0.379945
 123 H :    0.072245
 124 H :    0.092420
 125 C :   -0.429815
 126 H :    0.076892
 127 H :    0.090861
Sum of atomic charges:    0.0000000

E(0)                                       ...  -2162.558753616
E(0)                                       ...  -2162.558753616
E(CORR)(strong-pairs)                      ...     -0.008989204
E(CORR)(weak-pairs)                        ...     -0.005703147
E(CORR)(corrected)                         ...     -0.014692351
E(TOT)                                     ...  -2162.573445966

LOEWDIN ATOMIC CHARGES
----------------------
   0 C :   -0.062084
   1 C :   -0.085029
   2 H :    0.092325
   3 C :   -0.077336
   4 H :    0.092148
   5 C :   -0.057604
   6 C :   -0.065691
   7 H :    0.090203
   8 C :   -0.091384
   9 H :    0.090594
  10 C :   -0.094428
  11 H :    0.090751
  12 C :   -0.063857
  13 H :    0.092454
  14 C :   -0.155452
  15 C :   -0.125265
  16 H :    0.102091
  17 H :    0.102047
  18 C :   -0.165103
  19 H :    0.103537
  20 C :   -0.153517
  21 H :    0.097370
  22 H :    0.097520
  23 C :   -0.160161
  24 H :    0.101034
  25 C :   -0.125302
  26 H :    0.099451
  27 H :    0.098078
  28 C :   -0.119198
  29 H :    0.099223
  30 H :    0.096732
  31 C :   -0.161997
  32 H :    0.102080
  33 C :   -0.141203
  34 H :    0.094333
  35 H :    0.094516
  36 C :   -0.143985
  37 H :    0.094870
  38 H :    0.094923
  39 C :   -0.164043
  40 C :   -0.123853
  41 H :    0.101548
  42 H :    0.101097
  43 C :   -0.157740
  44 H :    0.101400
  45 C :   -0.145182
  46 H :    0.094840
  47 H :    0.094863
  48 C :   -0.162288
  49 H :    0.102867
  50 C :   -0.123363
  51 H :    0.099945
  52 H :    0.098935
  53 C :   -0.122525
  54 H :    0.096654
  55 H :    0.101572
  56 C :   -0.166970
  57 H :    0.104090
  58 C :   -0.148260
  59 H :    0.095831
  60 H :    0.096271
  61 C :   -0.148703
  62 H :    0.094598
  63 H :    0.095696
  64 C :   -0.061198
  65 C :   -0.084738
  66 H :    0.092957
  67 C :   -0.077296
  68 H :    0.091786
  69 C :   -0.058033
  70 C :   -0.065240
  71 H :    0.091383
  72 C :   -0.091389
  73 H :    0.090254
  74 C :   -0.094413
  75 H :    0.088294
  76 C :   -0.061220
  77 H :    0.094387
  78 C :   -0.155159
  79 C :   -0.125042
  80 H :    0.102340
  81 H :    0.102148
  82 C :   -0.164837
  83 H :    0.103485
  84 C :   -0.153706
  85 H :    0.097246
  86 H :    0.097222
  87 C :   -0.157645
  88 H :    0.101959
  89 C :   -0.123827
  90 H :    0.098599
  91 H :    0.098628
  92 C :   -0.121526
  93 H :    0.099585
  94 H :    0.096071
  95 C :   -0.165302
  96 H :    0.102489
  97 C :   -0.144149
  98 H :    0.093390
  99 H :    0.094731
 100 C :   -0.143812
 101 H :    0.094838
 102 H :    0.094792
 103 C :   -0.164841
 104 C :   -0.126004
 105 H :    0.101725
 106 H :    0.101697
 107 C :   -0.159966
 108 H :    0.100903
 109 C :   -0.145103
 110 H :    0.094997
 111 H :    0.095005
 112 C :   -0.162861
 113 H :    0.102842
 114 C :   -0.123935
 115 H :    0.099739
 116 H :    0.098624
 117 C :   -0.118187
 118 H :    0.097200
 119 H :    0.099717
 120 C :   -0.164150
 121 H :    0.103191
 122 C :   -0.148646
 123 H :    0.095904
 124 H :    0.096335
 125 C :   -0.145649
 126 H :    0.095212
 127 H :    0.095548

  Mayer bond orders larger than 0.100000
B(  0-C ,  1-C ) :   1.9384 B(  0-C , 12-C ) :   1.0114 B(  0-C , 14-C ) :   0.8468
B(  1-C ,  2-H ) :   0.9528 B(  1-C ,  3-C ) :   0.8640 B(  3-C ,  4-H ) :   1.0046
B(  3-C ,  5-C ) :   1.9075 B(  5-C ,  6-C ) :   1.0688 B(  5-C , 39-C ) :   0.8191
B(  6-C ,  7-H ) :   0.9818 B(  6-C ,  8-C ) :   1.9948 B(  8-C ,  9-H ) :   0.9909
B(  8-C , 10-C ) :   0.9035 B( 10-C , 11-H ) :   0.9891 B( 10-C , 12-C ) :   1.9965
B( 12-C , 13-H ) :   1.0002 B( 14-C , 15-C ) :   0.8631 B( 14-C , 25-C ) :   0.9962
B( 14-C , 28-C ) :   0.9008 B( 15-C , 16-H ) :   0.9908 B( 15-C , 17-H ) :   0.9944
B( 15-C , 18-C ) :   0.9048 B( 15-C , 20-C ) :   0.1124 B( 15-C , 25-C ) :   0.1719
B( 15-C , 33-C ) :   0.1056 B( 18-C , 19-H ) :   0.9752 B( 18-C , 20-C ) :   0.8744
B( 18-C , 33-C ) :   0.8700 B( 20-C , 21-H ) :   0.9894 B( 20-C , 22-H ) :   0.9988
B( 20-C , 23-C ) :   0.8668 B( 20-C , 25-C ) :   0.1234 B( 20-C , 33-C ) :   0.1202
B( 20-C , 36-C ) :   0.1231 B( 23-C , 24-H ) :   0.9712 B( 23-C , 25-C ) :   0.8776
B( 23-C , 36-C ) :   0.8813 B( 25-C , 26-H ) :   0.9904 B( 25-C , 27-H ) :   0.9815
B( 25-C , 28-C ) :   0.1336 B( 25-C , 36-C ) :   0.1198 B( 28-C , 29-H ) :   0.9925
B( 28-C , 30-H ) :   0.9861 B( 28-C , 31-C ) :   0.9302 B( 28-C , 33-C ) :   0.1053
B( 31-C , 32-H ) :   0.9722 B( 31-C , 33-C ) :   0.8741 B( 31-C , 36-C ) :   0.9166
B( 33-C , 34-H ) :   0.9968 B( 33-C , 35-H ) :   0.9967 B( 33-C , 36-C ) :   0.1175
B( 36-C , 37-H ) :   0.9945 B( 36-C , 38-H ) :   0.9975 B( 39-C , 40-C ) :   0.8911
B( 39-C , 50-C ) :   0.9550 B( 39-C , 53-C ) :   0.8520 B( 40-C , 41-H ) :   0.9930
B( 40-C , 42-H ) :   0.9913 B( 40-C , 43-C ) :   0.8972 B( 40-C , 45-C ) :   0.1111
B( 40-C , 50-C ) :   0.1273 B( 40-C , 53-C ) :   0.1308 B( 40-C , 58-C ) :   0.1023
B( 43-C , 44-H ) :   0.9717 B( 43-C , 45-C ) :   0.8783 B( 43-C , 58-C ) :   0.9204
B( 45-C , 46-H ) :   0.9979 B( 45-C , 47-H ) :   0.9973 B( 45-C , 48-C ) :   0.8399
B( 45-C , 50-C ) :   0.1165 B( 45-C , 58-C ) :   0.1144 B( 45-C , 61-C ) :   0.1363
B( 48-C , 49-H ) :   0.9688 B( 48-C , 50-C ) :   0.8665 B( 48-C , 61-C ) :   0.8379
B( 50-C , 51-H ) :   0.9945 B( 50-C , 52-H ) :   0.9941 B( 50-C , 53-C ) :   0.1623
B( 50-C , 61-C ) :   0.1313 B( 53-C , 54-H ) :   0.9879 B( 53-C , 55-H ) :   0.9792
B( 53-C , 56-C ) :   0.9003 B( 53-C , 58-C ) :   0.1023 B( 53-C , 61-C ) :   0.1292
B( 56-C , 57-H ) :   0.9533 B( 56-C , 58-C ) :   0.8870 B( 56-C , 61-C ) :   0.8655
B( 58-C , 59-H ) :   0.9976 B( 58-C , 60-H ) :   0.9975 B( 58-C , 61-C ) :   0.1146
B( 61-C , 62-H ) :   0.9921 B( 61-C , 63-H ) :   0.9962 B( 64-C , 65-C ) :   1.9664
B( 64-C , 76-C ) :   1.0550 B( 64-C , 78-C ) :   0.8175 B( 65-C , 66-H ) :   0.9856
B( 65-C , 67-C ) :   0.8635 B( 67-C , 68-H ) :   0.9915 B( 67-C , 69-C ) :   1.9205
B( 69-C , 70-C ) :   1.0003 B( 69-C ,103-C ) :   0.8317 B( 70-C , 71-H ) :   1.0004
B( 70-C , 72-C ) :   1.9886 B( 72-C , 73-H ) :   0.9894 B( 72-C , 74-C ) :   0.9198
B( 72-C , 76-C ) :   0.1093 B( 74-C , 75-H ) :   0.9341 B( 74-C , 76-C ) :   2.0577
B( 76-C , 77-H ) :   0.9340 B( 76-C , 78-C ) :  -0.1113 B( 78-C , 79-C ) :   0.8631
B( 78-C , 89-C ) :   0.9606 B( 78-C , 92-C ) :   0.9038 B( 79-C , 80-H ) :   0.9940
B( 79-C , 81-H ) :   0.9939 B( 79-C , 82-C ) :   0.8712 B( 79-C , 84-C ) :   0.1181
B( 79-C , 89-C ) :   0.1354 B( 79-C , 92-C ) :   0.1437 B( 79-C , 97-C ) :   0.1292
B( 82-C , 83-H ) :   0.9736 B( 82-C , 84-C ) :   0.8563 B( 82-C , 97-C ) :   0.8333
B( 84-C , 85-H ) :   0.9976 B( 84-C , 86-H ) :   0.9980 B( 84-C , 87-C ) :   0.8726
B( 84-C , 89-C ) :   0.1142 B( 84-C , 97-C ) :   0.1339 B( 84-C ,100-C ) :   0.1156
B( 87-C , 88-H ) :   0.9696 B( 87-C , 89-C ) :   0.8968 B( 87-C ,100-C ) :   0.9174
B( 89-C , 90-H ) :   0.9985 B( 89-C , 91-H ) :   0.9932 B( 89-C , 92-C ) :   0.1275
B( 89-C ,100-C ) :   0.1008 B( 92-C , 93-H ) :   0.9896 B( 92-C , 94-H ) :   0.9652
B( 92-C , 95-C ) :   0.9040 B( 92-C , 97-C ) :   0.1279 B( 95-C , 96-H ) :   0.9531
B( 95-C , 97-C ) :   0.8647 B( 95-C ,100-C ) :   0.8974 B( 97-C , 98-H ) :   0.9917
B( 97-C , 99-H ) :   0.9956 B( 97-C ,100-C ) :   0.1146 B(100-C ,101-H ) :   0.9963
B(100-C ,102-H ) :   0.9967 B(103-C ,104-C ) :   0.8963 B(103-C ,114-C ) :   0.9664
B(103-C ,117-C ) :   0.8923 B(104-C ,105-H ) :   0.9792 B(104-C ,106-H ) :   0.9866
B(104-C ,107-C ) :   0.8746 B(104-C ,109-C ) :   0.1214 B(104-C ,114-C ) :   0.1624
B(104-C ,117-C ) :   0.1178 B(104-C ,122-C ) :   0.1118 B(107-C ,108-H ) :   0.9757
B(107-C ,109-C ) :   0.8681 B(107-C ,122-C ) :   0.8883 B(109-C ,110-H ) :   0.9985
B(109-C ,111-H ) :   0.9892 B(109-C ,112-C ) :   0.8675 B(109-C ,114-C ) :   0.1107
B(109-C ,122-C ) :   0.1216 B(109-C ,125-C ) :   0.1202 B(112-C ,113-H ) :   0.9707
B(112-C ,114-C ) :   0.8952 B(112-C ,125-C ) :   0.8746 B(114-C ,115-H ) :   0.9951
B(114-C ,116-H ) :   0.9920 B(114-C ,117-C ) :   0.1280 B(114-C ,125-C ) :   0.1070
B(117-C ,118-H ) :   0.9900 B(117-C ,119-H ) :   0.9919 B(117-C ,120-C ) :   0.9271
B(120-C ,121-H ) :   0.9718 B(120-C ,122-C ) :   0.9025 B(120-C ,125-C ) :   0.8906
B(122-C ,123-H ) :   0.9955 B(122-C ,124-H ) :   0.9984 B(122-C ,125-C ) :   0.1182
B(125-C ,126-H ) :   0.9961 B(125-C ,127-H ) :   0.9967

FINAL SINGLE POINT ENERGY     -2162.573445966379

DIPOLE MOMENT
-------------
                                X             Y             Z
Electronic contribution:     -3.40631       1.94975       0.02977
Nuclear contribution   :      3.30110      -1.90643      -0.05962
                        -----------------------------------------
Total Dipole Moment    :     -0.10521       0.04332      -0.02985
                        -----------------------------------------
Magnitude (a.u.)       :      0.11763
Magnitude (Debye)      :      0.29899

Rotational constants in cm-1:     0.002116     0.001095     0.000782
Rotational constants in MHz :    63.423842    32.827539    23.445730

                             ****ORCA TERMINATED NORMALLY****
TOTAL RUN TIME: 0 days 0 hours 25 minutes 27 seconds 580 msec
