                         Program Version 6.0  -  CURRENT   -
|  1> ! DLPNO-CCSD RIJCOSX def2-TZVP(-f) def2/J def2-tzvp/C verytightscf LED
|  2>
|  3> %pal nprocs 16 end
|  4> %maxcore 8000
|  5> %scf maxiter 999 end
|  6> %mdci TCutPairs 1e-5 printlevel 3
|  7>       LocMet FB LocTol 1.0e-6 LocRandom 1
|  8>       HFFragInter {1 1} {2 2}
|  9>       end
| 10>
| 11> *xyz 0 1
| 12> C(1)       3.959814    2.561396    5.671998
| 13> C(1)       5.124688    2.711507    6.307297
| 14> H(1)       5.910980    2.624495    5.781307
| 15> C(1)       5.318750    3.001413    7.756160
| 16> H(1)       5.764958    2.338040    8.269299
| 17> C(1)       4.922108    4.116628    8.413564
| 18> C(1)       4.187615    5.217888    7.728235
| 19> H(1)       4.592983    6.076768    7.705738
| 20> C(1)       2.996500    5.073177    7.144286
| 21> H(1)       2.598240    5.854076    6.778112
| 22> C(1)       2.240560    3.812194    7.014673
| 23> H(1)       1.374630    3.783577    7.404357
| 24> C(1)       2.667365    2.709888    6.398299
| 25> H(1)       2.096330    1.951116    6.424481
| 26> C(1)       3.855528    2.189510    4.180727
| 27> C(1)       3.206858    3.365610    3.443570
| 28> H(1)       2.312363    3.542338    3.829289
| 29> H(1)       3.759862    4.177210    3.568431
| 30> C(1)       3.066693    3.071653    1.950331
| 31> H(1)       2.641663    3.853971    1.494983
| 32> C(1)       4.418385    2.801990    1.331483
| 33> H(1)       4.992310    3.603436    1.423104
| 34> H(1)       4.310148    2.608715    0.366596
| 35> C(1)       5.082741    1.613149    2.021845
| 36> H(1)       5.984031    1.450291    1.620378
| 37> C(1)       5.232054    1.929266    3.531282
| 38> H(1)       5.671955    1.167507    3.985505
| 39> H(1)       5.806469    2.727454    3.645513
| 40> C(1)       2.984490    0.916534    3.972879
| 41> H(1)       3.414105    0.144085    4.418806
| 42> H(1)       2.094116    1.053032    4.383598
| 43> C(1)       2.820046    0.619609    2.471962
| 44> H(1)       2.244245   -0.189108    2.351826
| 45> C(1)       2.172758    1.820210    1.768524
| 46> H(1)       1.276608    1.990313    2.153342
| 47> H(1)       2.063503    1.624174    0.804312
| 48> C(1)       4.205273    0.362816    1.851089
| 49> H(1)       4.633831   -0.410619    2.296313
| 50> H(1)       4.107182    0.151182    0.888958
| 51> C(1)       5.254459    4.351654    9.886415
| 52> C(1)       3.942843    4.629858   10.626355
| 53> H(1)       3.337150    3.853519   10.523739
| 54> H(1)       3.499931    5.418498   10.223876
| 55> C(1)       4.188483    4.891347   12.124403
| 56> H(1)       3.319013    5.074687   12.583126
| 57> C(1)       4.866138    3.667012   12.762937
| 58> H(1)       5.027716    3.836876   13.724759
| 59> H(1)       4.275091    2.876862   12.682734
| 60> C(1)       6.198220    3.393588   12.052721
| 61> H(1)       6.631672    2.589020   12.458659
| 62> C(1)       5.931826    3.131816   10.562519
| 63> H(1)       5.347601    2.338169   10.468170
| 64> H(1)       6.788160    2.937070   10.105455
| 65> C(1)       6.192447    5.559403   10.079583
| 66> H(1)       5.786533    6.362172    9.666193
| 67> H(1)       7.054843    5.383533    9.626344
| 68> C(1)       6.443690    5.823950   11.579544
| 69> H(1)       7.040792    6.620087   11.677689
| 70> C(1)       5.124238    6.098831   12.281970
| 71> H(1)       4.699544    6.903322   11.891414
| 72> H(1)       5.287472    6.271327   13.243060
| 73> C(1)       7.120822    4.604047   12.215462
| 74> H(1)       7.988732    4.429725   11.772262
| 75> H(1)       7.289890    4.773633   13.176074
| 76> C(2)       3.959814   -3.889704    5.671998
| 77> C(2)       5.124688   -3.739593    6.307297
| 78> H(2)       5.910980   -3.826605    5.781307
| 79> C(2)       5.318750   -3.449687    7.756160
| 80> H(2)       5.764958   -4.113060    8.269299
| 81> C(2)       4.922108   -2.334472    8.413564
| 82> C(2)       4.187615   -1.233212    7.728235
| 83> H(2)       4.592983   -0.374332    7.705738
| 84> C(2)       2.996500   -1.377923    7.144286
| 85> H(2)       2.598240   -0.597024    6.778112
| 86> C(2)       2.240560   -2.638906    7.014673
| 87> H(2)       1.374630   -2.667523    7.404357
| 88> C(2)       2.667365   -3.741212    6.398299
| 89> H(2)       2.096330   -4.499984    6.424481
| 90> C(2)       3.855528   -4.261590    4.180727
| 91> C(2)       3.206858   -3.085490    3.443570
| 92> H(2)       2.312363   -2.908762    3.829289
| 93> H(2)       3.759862   -2.273890    3.568431
| 94> C(2)       3.066693   -3.379447    1.950331
| 95> H(2)       2.641663   -2.597129    1.494983
| 96> C(2)       4.418385   -3.649110    1.331483
| 97> H(2)       4.992310   -2.847664    1.423104
| 98> H(2)       4.310148   -3.842385    0.366596
| 99> C(2)       5.082741   -4.837951    2.021845
|100> H(2)       5.984031   -5.000809    1.620378
|101> C(2)       5.232054   -4.521834    3.531282
|102> H(2)       5.671955   -5.283593    3.985505
|103> H(2)       5.806469   -3.723646    3.645513
|104> C(2)       2.984490   -5.534566    3.972879
|105> H(2)       3.414105   -6.307015    4.418806
|106> H(2)       2.094116   -5.398068    4.383598
|107> C(2)       2.820046   -5.831491    2.471962
|108> H(2)       2.244245   -6.640208    2.351826
|109> C(2)       2.172758   -4.630890    1.768524
|110> H(2)       1.276608   -4.460787    2.153342
|111> H(2)       2.063503   -4.826926    0.804312
|112> C(2)       4.205273   -6.088284    1.851089
|113> H(2)       4.633831   -6.861719    2.296313
|114> H(2)       4.107182   -6.299918    0.888958
|115> C(2)       5.254459   -2.099446    9.886415
|116> C(2)       3.942843   -1.821242   10.626355
|117> H(2)       3.337150   -2.597581   10.523739
|118> H(2)       3.499931   -1.032602   10.223876
|119> C(2)       4.188483   -1.559753   12.124403
|120> H(2)       3.319013   -1.376413   12.583126
|121> C(2)       4.866138   -2.784088   12.762937
|122> H(2)       5.027716   -2.614224   13.724759
|123> H(2)       4.275091   -3.574238   12.682734
|124> C(2)       6.198220   -3.057512   12.052721
|125> H(2)       6.631672   -3.862080   12.458659
|126> C(2)       5.931826   -3.319284   10.562519
|127> H(2)       5.347601   -4.112931   10.468170
|128> H(2)       6.788160   -3.514030   10.105455
|129> C(2)       6.192447   -0.891697   10.079583
|130> H(2)       5.786533   -0.088928    9.666193
|131> H(2)       7.054843   -1.067567    9.626344
|132> C(2)       6.443690   -0.627150   11.579544
|133> H(2)       7.040792    0.168987   11.677689
|134> C(2)       5.124238   -0.352269   12.281970
|135> H(2)       4.699544    0.452222   11.891414
|136> H(2)       5.287472   -0.179773   13.243060
|137> C(2)       7.120822   -1.847053   12.215462
|138> H(2)       7.988732   -2.021375   11.772262
|139> H(2)       7.289890   -1.677467   13.176074
|140> *
|141>
|142>                          ****END OF INPUT****

CARTESIAN COORDINATES (ANGSTROEM)
---------------------------------
  C      3.959814    2.561396    5.671998
  C      5.124688    2.711507    6.307297
  H      5.910980    2.624495    5.781307
  C      5.318750    3.001413    7.756160
  H      5.764958    2.338040    8.269299
  C      4.922108    4.116628    8.413564
  C      4.187615    5.217888    7.728235
  H      4.592983    6.076768    7.705738
  C      2.996500    5.073177    7.144286
  H      2.598240    5.854076    6.778112
  C      2.240560    3.812194    7.014673
  H      1.374630    3.783577    7.404357
  C      2.667365    2.709888    6.398299
  H      2.096330    1.951116    6.424481
  C      3.855528    2.189510    4.180727
  C      3.206858    3.365610    3.443570
  H      2.312363    3.542338    3.829289
  H      3.759862    4.177210    3.568431
  C      3.066693    3.071653    1.950331
  H      2.641663    3.853971    1.494983
  C      4.418385    2.801990    1.331483
  H      4.992310    3.603436    1.423104
  H      4.310148    2.608715    0.366596
  C      5.082741    1.613149    2.021845
  H      5.984031    1.450291    1.620378
  C      5.232054    1.929266    3.531282
  H      5.671955    1.167507    3.985505
  H      5.806469    2.727454    3.645513
  C      2.984490    0.916534    3.972879
  H      3.414105    0.144085    4.418806
  H      2.094116    1.053032    4.383598
  C      2.820046    0.619609    2.471962
  H      2.244245   -0.189108    2.351826
  C      2.172758    1.820210    1.768524
  H      1.276608    1.990313    2.153342
  H      2.063503    1.624174    0.804312
  C      4.205273    0.362816    1.851089
  H      4.633831   -0.410619    2.296313
  H      4.107182    0.151182    0.888958
  C      5.254459    4.351654    9.886415
  C      3.942843    4.629858   10.626355
  H      3.337150    3.853519   10.523739
  H      3.499931    5.418498   10.223876
  C      4.188483    4.891347   12.124403
  H      3.319013    5.074687   12.583126
  C      4.866138    3.667012   12.762937
  H      5.027716    3.836876   13.724759
  H      4.275091    2.876862   12.682734
  C      6.198220    3.393588   12.052721
  H      6.631672    2.589020   12.458659
  C      5.931826    3.131816   10.562519
  H      5.347601    2.338169   10.468170
  H      6.788160    2.937070   10.105455
  C      6.192447    5.559403   10.079583
  H      5.786533    6.362172    9.666193
  H      7.054843    5.383533    9.626344
  C      6.443690    5.823950   11.579544
  H      7.040792    6.620087   11.677689
  C      5.124238    6.098831   12.281970
  H      4.699544    6.903322   11.891414
  H      5.287472    6.271327   13.243060
  C      7.120822    4.604047   12.215462
  H      7.988732    4.429725   11.772262
  H      7.289890    4.773633   13.176074
  C      3.959814   -3.889704    5.671998
  C      5.124688   -3.739593    6.307297
  H      5.910980   -3.826605    5.781307
  C      5.318750   -3.449687    7.756160
  H      5.764958   -4.113060    8.269299
  C      4.922108   -2.334472    8.413564
  C      4.187615   -1.233212    7.728235
  H      4.592983   -0.374332    7.705738
  C      2.996500   -1.377923    7.144286
  H      2.598240   -0.597024    6.778112
  C      2.240560   -2.638906    7.014673
  H      1.374630   -2.667523    7.404357
  C      2.667365   -3.741212    6.398299
  H      2.096330   -4.499984    6.424481
  C      3.855528   -4.261590    4.180727
  C      3.206858   -3.085490    3.443570
  H      2.312363   -2.908762    3.829289
  H      3.759862   -2.273890    3.568431
  C      3.066693   -3.379447    1.950331
  H      2.641663   -2.597129    1.494983
  C      4.418385   -3.649110    1.331483
  H      4.992310   -2.847664    1.423104
  H      4.310148   -3.842385    0.366596
  C      5.082741   -4.837951    2.021845
  H      5.984031   -5.000809    1.620378
  C      5.232054   -4.521834    3.531282
  H      5.671955   -5.283593    3.985505
  H      5.806469   -3.723646    3.645513
  C      2.984490   -5.534566    3.972879
  H      3.414105   -6.307015    4.418806
  H      2.094116   -5.398068    4.383598
  C      2.820046   -5.831491    2.471962
  H      2.244245   -6.640208    2.351826
  C      2.172758   -4.630890    1.768524
  H      1.276608   -4.460787    2.153342
  H      2.063503   -4.826926    0.804312
  C      4.205273   -6.088284    1.851089
  H      4.633831   -6.861719    2.296313
  H      4.107182   -6.299918    0.888958
  C      5.254459   -2.099446    9.886415
  C      3.942843   -1.821242   10.626355
  H      3.337150   -2.597581   10.523739
  H      3.499931   -1.032602   10.223876
  C      4.188483   -1.559753   12.124403
  H      3.319013   -1.376413   12.583126
  C      4.866138   -2.784088   12.762937
  H      5.027716   -2.614224   13.724759
  H      4.275091   -3.574238   12.682734
  C      6.198220   -3.057512   12.052721
  H      6.631672   -3.862080   12.458659
  C      5.931826   -3.319284   10.562519
  H      5.347601   -4.112931   10.468170
  H      6.788160   -3.514030   10.105455
  C      6.192447   -0.891697   10.079583
  H      5.786533   -0.088928    9.666193
  H      7.054843   -1.067567    9.626344
  C      6.443690   -0.627150   11.579544
  H      7.040792    0.168987   11.677689
  C      5.124238   -0.352269   12.281970
  H      4.699544    0.452222   11.891414
  H      5.287472   -0.179773   13.243060
  C      7.120822   -1.847053   12.215462
  H      7.988732   -2.021375   11.772262
  H      7.289890   -1.677467   13.176074

 Total Charge           Charge          ....    0
 Multiplicity           Mult            ....    1
 Number of Electrons    NEL             ....  408
 Basis Dimension        Dim             .... 1776

ORBITAL ENERGIES
----------------

  NO   OCC          E(Eh)            E(eV)
   0   2.0000     -11.223611      -305.4100
   1   2.0000     -11.220967      -305.3380
   2   2.0000     -11.220461      -305.3243
   3   2.0000     -11.219218      -305.2905
   4   2.0000     -11.218614      -305.2740
   5   2.0000     -11.218407      -305.2684
   6   2.0000     -11.217424      -305.2416
   7   2.0000     -11.215457      -305.1881
   8   2.0000     -11.206999      -304.9579
   9   2.0000     -11.206190      -304.9359
  10   2.0000     -11.205143      -304.9074
  11   2.0000     -11.204348      -304.8858
  12   2.0000     -11.204061      -304.8780
  13   2.0000     -11.203155      -304.8533
  14   2.0000     -11.202255      -304.8288
  15   2.0000     -11.201333      -304.8038
  16   2.0000     -11.198672      -304.7314
  17   2.0000     -11.196039      -304.6597
  18   2.0000     -11.195225      -304.6375
  19   2.0000     -11.194468      -304.6170
  20   2.0000     -11.193937      -304.6025
  21   2.0000     -11.193482      -304.5901
  22   2.0000     -11.193299      -304.5852
  23   2.0000     -11.193041      -304.5781
  24   2.0000     -11.192888      -304.5740
  25   2.0000     -11.192707      -304.5690
  26   2.0000     -11.191800      -304.5443
  27   2.0000     -11.191688      -304.5413
  28   2.0000     -11.191497      -304.5361
  29   2.0000     -11.190457      -304.5078
  30   2.0000     -11.189554      -304.4832
  31   2.0000     -11.189011      -304.4685
  32   2.0000     -11.178344      -304.1782
  33   2.0000     -11.178042      -304.1700
  34   2.0000     -11.176519      -304.1286
  35   2.0000     -11.176248      -304.1212
  36   2.0000     -11.175380      -304.0975
  37   2.0000     -11.175348      -304.0967
  38   2.0000     -11.174590      -304.0761
  39   2.0000     -11.174159      -304.0643
  40   2.0000     -11.173931      -304.0581
  41   2.0000     -11.173903      -304.0574
  42   2.0000     -11.173666      -304.0509
  43   2.0000     -11.173201      -304.0383
  44   2.0000     -11.173121      -304.0361
  45   2.0000     -11.172730      -304.0254
  46   2.0000     -11.172642      -304.0230
  47   2.0000     -11.172343      -304.0149
  48   2.0000     -11.171628      -303.9955
  49   2.0000     -11.171534      -303.9929
  50   2.0000     -11.170916      -303.9761
  51   2.0000     -11.170550      -303.9661
  52   2.0000     -11.170256      -303.9581
  53   2.0000     -11.170143      -303.9551
  54   2.0000     -11.169865      -303.9475
  55   2.0000     -11.169614      -303.9406
  56   2.0000      -1.169847       -31.8332
  57   2.0000      -1.168752       -31.8034
  58   2.0000      -1.166859       -31.7519
  59   2.0000      -1.166338       -31.7377
  60   2.0000      -1.127451       -30.6795
  61   2.0000      -1.125381       -30.6232
  62   2.0000      -1.086409       -29.5627
  63   2.0000      -1.084939       -29.5227
  64   2.0000      -1.067709       -29.0538
  65   2.0000      -1.065761       -29.0008
  66   2.0000      -1.047435       -28.5022
  67   2.0000      -1.046553       -28.4782
  68   2.0000      -1.045253       -28.4428
  69   2.0000      -1.043827       -28.4040
  70   2.0000      -1.043556       -28.3966
  71   2.0000      -1.042633       -28.3715
  72   2.0000      -1.042057       -28.3558
  73   2.0000      -1.042009       -28.3545
  74   2.0000      -1.028202       -27.9788
  75   2.0000      -1.027109       -27.9490
  76   2.0000      -1.021133       -27.7864
  77   2.0000      -1.019195       -27.7337
  78   2.0000      -0.952411       -25.9164
  79   2.0000      -0.950623       -25.8678
  80   2.0000      -0.932773       -25.3821
  81   2.0000      -0.932513       -25.3750
  82   2.0000      -0.931218       -25.3397
  83   2.0000      -0.930731       -25.3265
  84   2.0000      -0.930465       -25.3192
  85   2.0000      -0.929678       -25.2978
  86   2.0000      -0.927658       -25.2429
  87   2.0000      -0.926845       -25.2207
  88   2.0000      -0.893906       -24.3244
  89   2.0000      -0.891794       -24.2669
  90   2.0000      -0.825616       -22.4662
  91   2.0000      -0.824380       -22.4325
  92   2.0000      -0.822118       -22.3710
  93   2.0000      -0.820895       -22.3377
  94   2.0000      -0.815671       -22.1955
  95   2.0000      -0.814780       -22.1713
  96   2.0000      -0.813973       -22.1493
  97   2.0000      -0.813470       -22.1356
  98   2.0000      -0.811196       -22.0738
  99   2.0000      -0.810678       -22.0597
 100   2.0000      -0.800425       -21.7807
 101   2.0000      -0.799584       -21.7578
 102   2.0000      -0.777143       -21.1471
 103   2.0000      -0.774986       -21.0885
 104   2.0000      -0.750669       -20.4268
 105   2.0000      -0.748279       -20.3617
 106   2.0000      -0.724618       -19.7179
 107   2.0000      -0.723651       -19.6915
 108   2.0000      -0.720685       -19.6108
 109   2.0000      -0.720225       -19.5983
 110   2.0000      -0.689106       -18.7515
 111   2.0000      -0.686822       -18.6894
 112   2.0000      -0.684624       -18.6296
 113   2.0000      -0.681308       -18.5393
 114   2.0000      -0.654533       -17.8108
 115   2.0000      -0.652302       -17.7500
 116   2.0000      -0.647223       -17.6118
 117   2.0000      -0.644915       -17.5490
 118   2.0000      -0.640075       -17.4173
 119   2.0000      -0.639708       -17.4073
 120   2.0000      -0.638419       -17.3723
 121   2.0000      -0.637842       -17.3566
 122   2.0000      -0.637132       -17.3372
 123   2.0000      -0.636889       -17.3306
 124   2.0000      -0.635815       -17.3014
 125   2.0000      -0.635653       -17.2970
 126   2.0000      -0.635237       -17.2857
 127   2.0000      -0.634704       -17.2712
 128   2.0000      -0.633755       -17.2453
 129   2.0000      -0.632628       -17.2147
 130   2.0000      -0.624617       -16.9967
 131   2.0000      -0.621314       -16.9068
 132   2.0000      -0.612627       -16.6704
 133   2.0000      -0.610938       -16.6245
 134   2.0000      -0.597718       -16.2647
 135   2.0000      -0.596132       -16.2216
 136   2.0000      -0.582055       -15.8385
 137   2.0000      -0.581222       -15.8158
 138   2.0000      -0.578381       -15.7386
 139   2.0000      -0.577723       -15.7207
 140   2.0000      -0.576155       -15.6780
 141   2.0000      -0.575551       -15.6615
 142   2.0000      -0.574136       -15.6230
 143   2.0000      -0.573172       -15.5968
 144   2.0000      -0.571216       -15.5436
 145   2.0000      -0.570562       -15.5258
 146   2.0000      -0.564804       -15.3691
 147   2.0000      -0.563709       -15.3393
 148   2.0000      -0.558230       -15.1902
 149   2.0000      -0.557231       -15.1630
 150   2.0000      -0.554322       -15.0839
 151   2.0000      -0.552405       -15.0317
 152   2.0000      -0.549575       -14.9547
 153   2.0000      -0.549035       -14.9400
 154   2.0000      -0.547292       -14.8926
 155   2.0000      -0.546360       -14.8672
 156   2.0000      -0.545248       -14.8370
 157   2.0000      -0.543182       -14.7807
 158   2.0000      -0.523429       -14.2432
 159   2.0000      -0.520990       -14.1769
 160   2.0000      -0.517172       -14.0730
 161   2.0000      -0.515350       -14.0234
 162   2.0000      -0.484024       -13.1710
 163   2.0000      -0.482239       -13.1224
 164   2.0000      -0.475549       -12.9404
 165   2.0000      -0.474400       -12.9091
 166   2.0000      -0.472702       -12.8629
 167   2.0000      -0.472174       -12.8485
 168   2.0000      -0.464529       -12.6405
 169   2.0000      -0.464361       -12.6359
 170   2.0000      -0.463708       -12.6181
 171   2.0000      -0.463023       -12.5995
 172   2.0000      -0.460224       -12.5233
 173   2.0000      -0.460023       -12.5179
 174   2.0000      -0.459020       -12.4906
 175   2.0000      -0.458733       -12.4828
 176   2.0000      -0.457915       -12.4605
 177   2.0000      -0.457463       -12.4482
 178   2.0000      -0.456737       -12.4284
 179   2.0000      -0.456647       -12.4260
 180   2.0000      -0.452940       -12.3251
 181   2.0000      -0.452354       -12.3092
 182   2.0000      -0.451482       -12.2854
 183   2.0000      -0.450530       -12.2595
 184   2.0000      -0.417649       -11.3648
 185   2.0000      -0.416252       -11.3268
 186   2.0000      -0.408132       -11.1058
 187   2.0000      -0.407349       -11.0845
 188   2.0000      -0.406065       -11.0496
 189   2.0000      -0.404217       -10.9993
 190   2.0000      -0.401935       -10.9372
 191   2.0000      -0.401775       -10.9328
 192   2.0000      -0.401153       -10.9159
 193   2.0000      -0.399815       -10.8795
 194   2.0000      -0.398441       -10.8421
 195   2.0000      -0.397207       -10.8086
 196   2.0000      -0.391893       -10.6640
 197   2.0000      -0.390252       -10.6193
 198   2.0000      -0.344423        -9.3722
 199   2.0000      -0.341610        -9.2957
 200   2.0000      -0.340732        -9.2718
 201   2.0000      -0.338404        -9.2084
 202   2.0000      -0.302796        -8.2395
 203   2.0000      -0.299420        -8.1476
 204   0.0000       0.123398         3.3578
 205   0.0000       0.124546         3.3891
 206   0.0000       0.125635         3.4187
 207   0.0000       0.128649         3.5007
 208   0.0000       0.139839         3.8052

MULLIKEN ATOMIC CHARGES
-----------------------
   0 C :    0.212652
   1 C :   -0.126938
   2 H :    0.076135
   3 C :   -0.057876
   4 H :    0.144029
   5 C :    0.271000
   6 C :   -0.351051
   7 H :    0.064460
   8 C :   -0.027655
   9 H :    0.065744
  10 C :   -0.063753
  11 H :    0.060706
  12 C :   -0.355869
  13 H :    0.071605
  14 C :    0.451029
  15 C :   -0.476774
  16 H :    0.095113
  17 H :    0.093403
  18 C :    0.318460
  19 H :    0.095876
  20 C :   -0.444815
  21 H :    0.077343
  22 H :    0.090612
  23 C :    0.465249
  24 H :    0.093079
  25 C :   -0.465194
  26 H :    0.085709
  27 H :    0.085698
  28 C :   -0.635649
  29 H :    0.149093
  30 H :    0.090732
  31 C :    0.330009
  32 H :    0.119973
  33 C :   -0.368011
  34 H :    0.072736
  35 H :    0.093336
  36 C :   -0.559706
  37 H :    0.085075
  38 H :    0.095902
  39 C :    0.451599
  40 C :   -0.464061
  41 H :    0.087762
  42 H :    0.098590
  43 C :    0.356211
  44 H :    0.096021
  45 C :   -0.449078
  46 H :    0.093483
  47 H :    0.089087
  48 C :    0.351160
  49 H :    0.108251
  50 C :   -0.666106
  51 H :    0.105887
  52 H :    0.082370
  53 C :   -0.444140
  54 H :    0.082218
  55 H :    0.089855
  56 C :    0.298009
  57 H :    0.097261
  58 C :   -0.440019
  59 H :    0.076462
  60 H :    0.092435
  61 C :   -0.379864
  62 H :    0.074953
  63 H :    0.091061
  64 C :    0.307520
  65 C :   -0.106451
  66 H :    0.078424
  67 C :   -0.099224
  68 H :    0.078412
  69 C :    0.290349
  70 C :   -0.453325
  71 H :    0.152765
  72 C :   -0.077896
  73 H :    0.125188
  74 C :   -0.085794
  75 H :    0.063055
  76 C :   -0.344655
  77 H :    0.062642
  78 C :    0.450093
  79 C :   -0.710877
  80 H :    0.100806
  81 H :    0.121637
  82 C :    0.348399
  83 H :    0.108447
  84 C :   -0.457592
  85 H :    0.088335
  86 H :    0.095264
  87 C :    0.372055
  88 H :    0.092406
  89 C :   -0.429873
  90 H :    0.087641
  91 H :    0.078130
  92 C :   -0.456747
  93 H :    0.090722
  94 H :    0.084459
  95 C :    0.290897
  96 H :    0.098854
  97 C :   -0.372617
  98 H :    0.073292
  99 H :    0.093036
 100 C :   -0.430737
 101 H :    0.079304
 102 H :    0.089566
 103 C :    0.408141
 104 C :   -0.502843
 105 H :    0.093088
 106 H :    0.099644
 107 C :    0.435009
 108 H :    0.095577
 109 C :   -0.437800
 110 H :    0.090011
 111 H :    0.078880
 112 C :    0.347516
 113 H :    0.092896
 114 C :   -0.429692
 115 H :    0.087101
 116 H :    0.078458
 117 C :   -0.572009
 118 H :    0.108808
 119 H :    0.092000
 120 C :    0.338185
 121 H :    0.111429
 122 C :   -0.560013
 123 H :    0.083625
 124 H :    0.096901
 125 C :   -0.376974
 126 H :    0.074958
 127 H :    0.090317
Sum of atomic charges:   -0.0000000

E(0)                                       ...  -2162.557815479
E(0)                                       ...  -2162.557815479
E(CORR)(strong-pairs)                      ...     -0.010846967
E(CORR)(weak-pairs)                        ...     -0.005732241
E(CORR)(corrected)                         ...     -0.016579208
E(TOT)                                     ...  -2162.574394687

LOEWDIN ATOMIC CHARGES
----------------------
   0 C :   -0.062504
   1 C :   -0.083803
   2 H :    0.093423
   3 C :   -0.079573
   4 H :    0.090399
   5 C :   -0.056906
   6 C :   -0.064258
   7 H :    0.091731
   8 C :   -0.091378
   9 H :    0.090592
  10 C :   -0.094255
  11 H :    0.090792
  12 C :   -0.065330
  13 H :    0.090631
  14 C :   -0.154767
  15 C :   -0.125354
  16 H :    0.101954
  17 H :    0.102028
  18 C :   -0.165597
  19 H :    0.103364
  20 C :   -0.153648
  21 H :    0.097163
  22 H :    0.097245
  23 C :   -0.156487
  24 H :    0.102080
  25 C :   -0.123301
  26 H :    0.099383
  27 H :    0.098477
  28 C :   -0.122302
  29 H :    0.100036
  30 H :    0.096817
  31 C :   -0.163838
  32 H :    0.102091
  33 C :   -0.140033
  34 H :    0.094384
  35 H :    0.094510
  36 C :   -0.147337
  37 H :    0.093387
  38 H :    0.095191
  39 C :   -0.164371
  40 C :   -0.123613
  41 H :    0.101680
  42 H :    0.101246
  43 C :   -0.157401
  44 H :    0.101567
  45 C :   -0.145567
  46 H :    0.095168
  47 H :    0.094002
  48 C :   -0.165470
  49 H :    0.102543
  50 C :   -0.126541
  51 H :    0.098201
  52 H :    0.099359
  53 C :   -0.118050
  54 H :    0.097158
  55 H :    0.099829
  56 C :   -0.163986
  57 H :    0.103242
  58 C :   -0.149325
  59 H :    0.095808
  60 H :    0.096287
  61 C :   -0.144469
  62 H :    0.095383
  63 H :    0.095759
  64 C :   -0.062981
  65 C :   -0.083599
  66 H :    0.093039
  67 C :   -0.078611
  68 H :    0.091713
  69 C :   -0.056085
  70 C :   -0.061244
  71 H :    0.093725
  72 C :   -0.092451
  73 H :    0.088477
  74 C :   -0.094229
  75 H :    0.090431
  76 C :   -0.064929
  77 H :    0.092109
  78 C :   -0.155221
  79 C :   -0.128093
  80 H :    0.102496
  81 H :    0.101174
  82 C :   -0.167706
  83 H :    0.102957
  84 C :   -0.154116
  85 H :    0.096365
  86 H :    0.097483
  87 C :   -0.157278
  88 H :    0.102016
  89 C :   -0.123703
  90 H :    0.098687
  91 H :    0.098509
  92 C :   -0.119082
  93 H :    0.099149
  94 H :    0.096789
  95 C :   -0.162014
  96 H :    0.102023
  97 C :   -0.140227
  98 H :    0.094443
  99 H :    0.094596
 100 C :   -0.144869
 101 H :    0.094733
 102 H :    0.094732
 103 C :   -0.164446
 104 C :   -0.123506
 105 H :    0.101634
 106 H :    0.101732
 107 C :   -0.156751
 108 H :    0.101543
 109 C :   -0.145143
 110 H :    0.094785
 111 H :    0.094871
 112 C :   -0.163338
 113 H :    0.102748
 114 C :   -0.123901
 115 H :    0.100067
 116 H :    0.098511
 117 C :   -0.118892
 118 H :    0.095870
 119 H :    0.099950
 120 C :   -0.166280
 121 H :    0.102602
 122 C :   -0.151694
 123 H :    0.094763
 124 H :    0.096717
 125 C :   -0.144616
 126 H :    0.095296
 127 H :    0.095588

  Mayer bond orders larger than 0.100000
B(  0-C ,  1-C ) :   1.9239 B(  0-C , 12-C ) :   1.0922 B(  0-C , 14-C ) :   0.8192
B(  1-C ,  2-H ) :   1.0023 B(  1-C ,  3-C ) :   0.8611 B(  3-C ,  4-H ) :   0.9455
B(  3-C ,  5-C ) :   1.9152 B(  5-C ,  6-C ) :   0.9838 B(  5-C , 39-C ) :   0.8550
B(  6-C ,  7-H ) :   0.9989 B(  6-C ,  8-C ) :   1.9991 B(  8-C ,  9-H ) :   0.9883
B(  8-C , 10-C ) :   0.9024 B( 10-C , 11-H ) :   0.9923 B( 10-C , 12-C ) :   1.9894
B( 12-C , 13-H ) :   0.9813 B( 14-C , 15-C ) :   0.8859 B( 14-C , 25-C ) :   0.9722
B( 14-C , 28-C ) :   0.8754 B( 15-C , 16-H ) :   0.9921 B( 15-C , 17-H ) :   0.9946
B( 15-C , 18-C ) :   0.9077 B( 15-C , 20-C ) :   0.1087 B( 15-C , 25-C ) :   0.1321
B( 15-C , 28-C ) :   0.1159 B( 15-C , 33-C ) :   0.1038 B( 18-C , 19-H ) :   0.9728
B( 18-C , 20-C ) :   0.8878 B( 18-C , 33-C ) :   0.8988 B( 20-C , 21-H ) :   0.9965
B( 20-C , 22-H ) :   0.9980 B( 20-C , 23-C ) :   0.8539 B( 20-C , 25-C ) :   0.1136
B( 20-C , 33-C ) :   0.1146 B( 20-C , 36-C ) :   0.1384 B( 23-C , 24-H ) :   0.9707
B( 23-C , 25-C ) :   0.8682 B( 23-C , 36-C ) :   0.8298 B( 25-C , 26-H ) :   0.9978
B( 25-C , 27-H ) :   0.9912 B( 25-C , 28-C ) :   0.1331 B( 25-C , 36-C ) :   0.1295
B( 28-C , 29-H ) :   0.9733 B( 28-C , 30-H ) :   0.9839 B( 28-C , 31-C ) :   0.9021
B( 28-C , 33-C ) :   0.1140 B( 28-C , 36-C ) :   0.1425 B( 31-C , 32-H ) :   0.9663
B( 31-C , 33-C ) :   0.8698 B( 31-C , 36-C ) :   0.8839 B( 33-C , 34-H ) :   0.9977
B( 33-C , 35-H ) :   0.9985 B( 33-C , 36-C ) :   0.1203 B( 36-C , 37-H ) :   0.9827
B( 36-C , 38-H ) :   0.9933 B( 39-C , 40-C ) :   0.8602 B( 39-C , 50-C ) :   0.9798
B( 39-C , 53-C ) :   0.8583 B( 40-C , 41-H ) :   0.9939 B( 40-C , 42-H ) :   0.9890
B( 40-C , 43-C ) :   0.9006 B( 40-C , 45-C ) :   0.1059 B( 40-C , 50-C ) :   0.1808
B( 40-C , 58-C ) :   0.1040 B( 43-C , 44-H ) :   0.9740 B( 43-C , 45-C ) :   0.8853
B( 43-C , 58-C ) :   0.8743 B( 45-C , 46-H ) :   0.9968 B( 45-C , 47-H ) :   0.9925
B( 45-C , 48-C ) :   0.8619 B( 45-C , 50-C ) :   0.1260 B( 45-C , 58-C ) :   0.1193
B( 45-C , 61-C ) :   0.1167 B( 48-C , 49-H ) :   0.9687 B( 48-C , 50-C ) :   0.8689
B( 48-C , 61-C ) :   0.8781 B( 50-C , 51-H ) :   0.9861 B( 50-C , 52-H ) :   0.9873
B( 50-C , 53-C ) :   0.1802 B( 50-C , 61-C ) :   0.1207 B( 53-C , 54-H ) :   0.9903
B( 53-C , 55-H ) :   0.9905 B( 53-C , 56-C ) :   0.9350 B( 53-C , 58-C ) :   0.1045
B( 56-C , 57-H ) :   0.9711 B( 56-C , 58-C ) :   0.8767 B( 56-C , 61-C ) :   0.9168
B( 58-C , 59-H ) :   0.9972 B( 58-C , 60-H ) :   0.9977 B( 58-C , 61-C ) :   0.1188
B( 61-C , 62-H ) :   0.9958 B( 61-C , 63-H ) :   0.9986 B( 64-C , 65-C ) :   1.9568
B( 64-C , 76-C ) :   1.0073 B( 64-C , 78-C ) :   0.8278 B( 65-C , 66-H ) :   0.9860
B( 65-C , 67-C ) :   0.8585 B( 67-C , 68-H ) :   0.9923 B( 67-C , 69-C ) :   1.9439
B( 69-C , 70-C ) :   1.0206 B( 69-C ,103-C ) :   0.8272 B( 70-C , 71-H ) :   0.9222
B( 70-C , 72-C ) :   2.0743 B( 70-C , 74-C ) :   0.1161 B( 72-C , 73-H ) :   0.9313
B( 72-C , 74-C ) :   0.9181 B( 74-C , 75-H ) :   0.9913 B( 74-C , 76-C ) :   1.9805
B( 76-C , 77-H ) :   1.0039 B( 78-C , 79-C ) :   0.8727 B( 78-C , 89-C ) :   0.9579
B( 78-C , 92-C ) :   0.8971 B( 79-C , 80-H ) :   0.9910 B( 79-C , 81-H ) :   0.9772
B( 79-C , 82-C ) :   0.8768 B( 79-C , 84-C ) :   0.1405 B( 79-C , 89-C ) :   0.1731
B( 79-C , 92-C ) :   0.1344 B( 79-C , 97-C ) :   0.1229 B( 82-C , 83-H ) :   0.9727
B( 82-C , 84-C ) :   0.8615 B( 82-C , 97-C ) :   0.8688 B( 84-C , 85-H ) :   0.9928
B( 84-C , 86-H ) :   0.9965 B( 84-C , 87-C ) :   0.8856 B( 84-C , 89-C ) :   0.1091
B( 84-C , 97-C ) :   0.1178 B( 84-C ,100-C ) :   0.1186 B( 87-C , 88-H ) :   0.9704
B( 87-C , 89-C ) :   0.8971 B( 87-C ,100-C ) :   0.8764 B( 89-C , 90-H ) :   0.9939
B( 89-C , 91-H ) :   0.9933 B( 89-C , 92-C ) :   0.1003 B( 89-C ,100-C ) :   0.1031
B( 92-C , 93-H ) :   0.9936 B( 92-C , 94-H ) :   0.9862 B( 92-C , 95-C ) :   0.9357
B( 95-C , 96-H ) :   0.9709 B( 95-C , 97-C ) :   0.9053 B( 95-C ,100-C ) :   0.8961
B( 97-C , 98-H ) :   0.9966 B( 97-C , 99-H ) :   0.9987 B( 97-C ,100-C ) :   0.1121
B(100-C ,101-H ) :   0.9958 B(100-C ,102-H ) :   0.9965 B(103-C ,104-C ) :   0.8923
B(103-C ,114-C ) :   0.9760 B(103-C ,117-C ) :   0.9017 B(104-C ,105-H ) :   0.9913
B(104-C ,106-H ) :   0.9919 B(104-C ,107-C ) :   0.8709 B(104-C ,109-C ) :   0.1077
B(104-C ,114-C ) :   0.1212 B(104-C ,117-C ) :   0.1388 B(104-C ,122-C ) :   0.1276
B(107-C ,108-H ) :   0.9745 B(107-C ,109-C ) :   0.8627 B(107-C ,122-C ) :   0.8333
B(109-C ,110-H ) :   0.9974 B(109-C ,111-H ) :   0.9971 B(109-C ,112-C ) :   0.8772
B(109-C ,114-C ) :   0.1050 B(109-C ,122-C ) :   0.1359 B(109-C ,125-C ) :   0.1137
B(112-C ,113-H ) :   0.9705 B(112-C ,114-C ) :   0.9011 B(112-C ,125-C ) :   0.8997
B(114-C ,115-H ) :   0.9953 B(114-C ,116-H ) :   0.9933 B(114-C ,117-C ) :   0.1418
B(114-C ,125-C ) :   0.1029 B(117-C ,118-H ) :   0.9697 B(117-C ,119-H ) :   0.9884
B(117-C ,120-C ) :   0.8906 B(117-C ,122-C ) :   0.1515 B(117-C ,125-C ) :   0.1108
B(120-C ,121-H ) :   0.9673 B(120-C ,122-C ) :   0.8688 B(120-C ,125-C ) :   0.8803
B(122-C ,123-H ) :   0.9822 B(122-C ,124-H ) :   0.9933 B(122-C ,125-C ) :   0.1247
B(125-C ,126-H ) :   0.9972 B(125-C ,127-H ) :   0.9976

FINAL SINGLE POINT ENERGY     -2162.574394686737

DIPOLE MOMENT
-------------
                                X             Y             Z
Electronic contribution:     -3.37641       2.01576       0.04847
Nuclear contribution   :      3.30110      -1.90643      -0.05962
                        -----------------------------------------
Total Dipole Moment    :     -0.07532       0.10933      -0.01115
                        -----------------------------------------
Magnitude (a.u.)       :      0.13323
Magnitude (Debye)      :      0.33864

Rotational constants in cm-1:     0.002117     0.001115     0.000792
Rotational constants in MHz :    63.462385    33.419717    23.731062

                             ****ORCA TERMINATED NORMALLY****
TOTAL RUN TIME: 0 days 0 hours 25 minutes 52 seconds 702 msec
