                         Program Version 6.0  -  CURRENT   -
|  1> ! DLPNO-CCSD RIJCOSX def2-TZVP(-f) def2/J def2-tzvp/C verytightscf LED
|  2>
|  3> %pal nprocs 16 end
|  4> %maxcore 8000
|  5> %scf maxiter 999 end
|  6> %mdci TCutPairs 1e-5 printlevel 3
|  7>       LocMet FB LocTol 1.0e-6 LocRandom 1
|  8>       HFFragInter {1 1} {2 2}
|  9>       end
| 10>
| 11> *xyz 0 1
| 12> C(1)       3.959814    2.561396    5.671998
| 13> C(1)       5.124688    2.711507    6.307297
| 14> H(1)       5.910980    2.624495    5.781307
| 15> C(1)       5.318750    3.001413    7.756160
| 16> H(1)       5.764958    2.338040    8.269299
| 17> C(1)       4.922108    4.116628    8.413564
| 18> C(1)       4.187615    5.217888    7.728235
| 19> H(1)       4.592983    6.076768    7.705738
| 20> C(1)       2.996500    5.073177    7.144286
| 21> H(1)       2.598240    5.854076    6.778112
| 22> C(1)       2.240560    3.812194    7.014673
| 23> H(1)       1.374630    3.783577    7.404357
| 24> C(1)       2.667365    2.709888    6.398299
| 25> H(1)       2.096330    1.951116    6.424481
| 26> C(1)       3.855528    2.189510    4.180727
| 27> C(1)       3.206858    3.365610    3.443570
| 28> H(1)       2.312363    3.542338    3.829289
| 29> H(1)       3.759862    4.177210    3.568431
| 30> C(1)       3.066693    3.071653    1.950331
| 31> H(1)       2.641663    3.853971    1.494983
| 32> C(1)       4.418385    2.801990    1.331483
| 33> H(1)       4.992310    3.603436    1.423104
| 34> H(1)       4.310148    2.608715    0.366596
| 35> C(1)       5.082741    1.613149    2.021845
| 36> H(1)       5.984031    1.450291    1.620378
| 37> C(1)       5.232054    1.929266    3.531282
| 38> H(1)       5.671955    1.167507    3.985505
| 39> H(1)       5.806469    2.727454    3.645513
| 40> C(1)       2.984490    0.916534    3.972879
| 41> H(1)       3.414105    0.144085    4.418806
| 42> H(1)       2.094116    1.053032    4.383598
| 43> C(1)       2.820046    0.619609    2.471962
| 44> H(1)       2.244245   -0.189108    2.351826
| 45> C(1)       2.172758    1.820210    1.768524
| 46> H(1)       1.276608    1.990313    2.153342
| 47> H(1)       2.063503    1.624174    0.804312
| 48> C(1)       4.205273    0.362816    1.851089
| 49> H(1)       4.633831   -0.410619    2.296313
| 50> H(1)       4.107182    0.151182    0.888958
| 51> C(1)       5.254459    4.351654    9.886415
| 52> C(1)       3.942843    4.629858   10.626355
| 53> H(1)       3.337150    3.853519   10.523739
| 54> H(1)       3.499931    5.418498   10.223876
| 55> C(1)       4.188483    4.891347   12.124403
| 56> H(1)       3.319013    5.074687   12.583126
| 57> C(1)       4.866138    3.667012   12.762937
| 58> H(1)       5.027716    3.836876   13.724759
| 59> H(1)       4.275091    2.876862   12.682734
| 60> C(1)       6.198220    3.393588   12.052721
| 61> H(1)       6.631672    2.589020   12.458659
| 62> C(1)       5.931826    3.131816   10.562519
| 63> H(1)       5.347601    2.338169   10.468170
| 64> H(1)       6.788160    2.937070   10.105455
| 65> C(1)       6.192447    5.559403   10.079583
| 66> H(1)       5.786533    6.362172    9.666193
| 67> H(1)       7.054843    5.383533    9.626344
| 68> C(1)       6.443690    5.823950   11.579544
| 69> H(1)       7.040792    6.620087   11.677689
| 70> C(1)       5.124238    6.098831   12.281970
| 71> H(1)       4.699544    6.903322   11.891414
| 72> H(1)       5.287472    6.271327   13.243060
| 73> C(1)       7.120822    4.604047   12.215462
| 74> H(1)       7.988732    4.429725   11.772262
| 75> H(1)       7.289890    4.773633   13.176074
| 76> C(2)       1.754486   -0.664154   -5.671998
| 77> C(2)       0.589612   -0.514043   -6.307297
| 78> H(2)      -0.196680   -0.601055   -5.781307
| 79> C(2)       0.395550   -0.224137   -7.756160
| 80> H(2)      -0.050658   -0.887510   -8.269299
| 81> C(2)       0.792192    0.891078   -8.413564
| 82> C(2)       1.526685    1.992338   -7.728235
| 83> H(2)       1.121317    2.851218   -7.705738
| 84> C(2)       2.717800    1.847627   -7.144286
| 85> H(2)       3.116060    2.628526   -6.778112
| 86> C(2)       3.473740    0.586644   -7.014673
| 87> H(2)       4.339670    0.558027   -7.404357
| 88> C(2)       3.046935   -0.515662   -6.398299
| 89> H(2)       3.617970   -1.274434   -6.424481
| 90> C(2)       1.858772   -1.036040   -4.180727
| 91> C(2)       2.507442    0.140060   -3.443570
| 92> H(2)       3.401937    0.316788   -3.829289
| 93> H(2)       1.954438    0.951660   -3.568431
| 94> C(2)       2.647607   -0.153897   -1.950331
| 95> H(2)       3.072637    0.628421   -1.494983
| 96> C(2)       1.295915   -0.423560   -1.331483
| 97> H(2)       0.721990    0.377886   -1.423104
| 98> H(2)       1.404152   -0.616835   -0.366596
| 99> C(2)       0.631559   -1.612401   -2.021845
|100> H(2)      -0.269731   -1.775259   -1.620378
|101> C(2)       0.482246   -1.296284   -3.531282
|102> H(2)       0.042345   -2.058043   -3.985505
|103> H(2)      -0.092169   -0.498096   -3.645513
|104> C(2)       2.729810   -2.309016   -3.972879
|105> H(2)       2.300195   -3.081465   -4.418806
|106> H(2)       3.620184   -2.172518   -4.383598
|107> C(2)       2.894254   -2.605941   -2.471962
|108> H(2)       3.470055   -3.414658   -2.351826
|109> C(2)       3.541542   -1.405340   -1.768524
|110> H(2)       4.437692   -1.235237   -2.153342
|111> H(2)       3.650797   -1.601376   -0.804312
|112> C(2)       1.509027   -2.862734   -1.851089
|113> H(2)       1.080469   -3.636169   -2.296313
|114> H(2)       1.607118   -3.074368   -0.888958
|115> C(2)       0.459841    1.126104   -9.886415
|116> C(2)       1.771457    1.404308  -10.626355
|117> H(2)       2.377150    0.627969  -10.523739
|118> H(2)       2.214369    2.192948  -10.223876
|119> C(2)       1.525817    1.665797  -12.124403
|120> H(2)       2.395287    1.849137  -12.583126
|121> C(2)       0.848162    0.441462  -12.762937
|122> H(2)       0.686584    0.611326  -13.724759
|123> H(2)       1.439209   -0.348688  -12.682734
|124> C(2)      -0.483920    0.168038  -12.052721
|125> H(2)      -0.917372   -0.636530  -12.458659
|126> C(2)      -0.217526   -0.093734  -10.562519
|127> H(2)       0.366699   -0.887381  -10.468170
|128> H(2)      -1.073860   -0.288480  -10.105455
|129> C(2)      -0.478147    2.333853  -10.079583
|130> H(2)      -0.072233    3.136622   -9.666193
|131> H(2)      -1.340543    2.157983   -9.626344
|132> C(2)      -0.729390    2.598400  -11.579544
|133> H(2)      -1.326492    3.394537  -11.677689
|134> C(2)       0.590062    2.873281  -12.281970
|135> H(2)       1.014756    3.677772  -11.891414
|136> H(2)       0.426828    3.045777  -13.243060
|137> C(2)      -1.406522    1.378497  -12.215462
|138> H(2)      -2.274432    1.204175  -11.772262
|139> H(2)      -1.575590    1.548083  -13.176074
|140> *
|141>
|142>                          ****END OF INPUT****

CARTESIAN COORDINATES (ANGSTROEM)
---------------------------------
  C      3.959814    2.561396    5.671998
  C      5.124688    2.711507    6.307297
  H      5.910980    2.624495    5.781307
  C      5.318750    3.001413    7.756160
  H      5.764958    2.338040    8.269299
  C      4.922108    4.116628    8.413564
  C      4.187615    5.217888    7.728235
  H      4.592983    6.076768    7.705738
  C      2.996500    5.073177    7.144286
  H      2.598240    5.854076    6.778112
  C      2.240560    3.812194    7.014673
  H      1.374630    3.783577    7.404357
  C      2.667365    2.709888    6.398299
  H      2.096330    1.951116    6.424481
  C      3.855528    2.189510    4.180727
  C      3.206858    3.365610    3.443570
  H      2.312363    3.542338    3.829289
  H      3.759862    4.177210    3.568431
  C      3.066693    3.071653    1.950331
  H      2.641663    3.853971    1.494983
  C      4.418385    2.801990    1.331483
  H      4.992310    3.603436    1.423104
  H      4.310148    2.608715    0.366596
  C      5.082741    1.613149    2.021845
  H      5.984031    1.450291    1.620378
  C      5.232054    1.929266    3.531282
  H      5.671955    1.167507    3.985505
  H      5.806469    2.727454    3.645513
  C      2.984490    0.916534    3.972879
  H      3.414105    0.144085    4.418806
  H      2.094116    1.053032    4.383598
  C      2.820046    0.619609    2.471962
  H      2.244245   -0.189108    2.351826
  C      2.172758    1.820210    1.768524
  H      1.276608    1.990313    2.153342
  H      2.063503    1.624174    0.804312
  C      4.205273    0.362816    1.851089
  H      4.633831   -0.410619    2.296313
  H      4.107182    0.151182    0.888958
  C      5.254459    4.351654    9.886415
  C      3.942843    4.629858   10.626355
  H      3.337150    3.853519   10.523739
  H      3.499931    5.418498   10.223876
  C      4.188483    4.891347   12.124403
  H      3.319013    5.074687   12.583126
  C      4.866138    3.667012   12.762937
  H      5.027716    3.836876   13.724759
  H      4.275091    2.876862   12.682734
  C      6.198220    3.393588   12.052721
  H      6.631672    2.589020   12.458659
  C      5.931826    3.131816   10.562519
  H      5.347601    2.338169   10.468170
  H      6.788160    2.937070   10.105455
  C      6.192447    5.559403   10.079583
  H      5.786533    6.362172    9.666193
  H      7.054843    5.383533    9.626344
  C      6.443690    5.823950   11.579544
  H      7.040792    6.620087   11.677689
  C      5.124238    6.098831   12.281970
  H      4.699544    6.903322   11.891414
  H      5.287472    6.271327   13.243060
  C      7.120822    4.604047   12.215462
  H      7.988732    4.429725   11.772262
  H      7.289890    4.773633   13.176074
  C      1.754486   -0.664154   -5.671998
  C      0.589612   -0.514043   -6.307297
  H     -0.196680   -0.601055   -5.781307
  C      0.395550   -0.224137   -7.756160
  H     -0.050658   -0.887510   -8.269299
  C      0.792192    0.891078   -8.413564
  C      1.526685    1.992338   -7.728235
  H      1.121317    2.851218   -7.705738
  C      2.717800    1.847627   -7.144286
  H      3.116060    2.628526   -6.778112
  C      3.473740    0.586644   -7.014673
  H      4.339670    0.558027   -7.404357
  C      3.046935   -0.515662   -6.398299
  H      3.617970   -1.274434   -6.424481
  C      1.858772   -1.036040   -4.180727
  C      2.507442    0.140060   -3.443570
  H      3.401937    0.316788   -3.829289
  H      1.954438    0.951660   -3.568431
  C      2.647607   -0.153897   -1.950331
  H      3.072637    0.628421   -1.494983
  C      1.295915   -0.423560   -1.331483
  H      0.721990    0.377886   -1.423104
  H      1.404152   -0.616835   -0.366596
  C      0.631559   -1.612401   -2.021845
  H     -0.269731   -1.775259   -1.620378
  C      0.482246   -1.296284   -3.531282
  H      0.042345   -2.058043   -3.985505
  H     -0.092169   -0.498096   -3.645513
  C      2.729810   -2.309016   -3.972879
  H      2.300195   -3.081465   -4.418806
  H      3.620184   -2.172518   -4.383598
  C      2.894254   -2.605941   -2.471962
  H      3.470055   -3.414658   -2.351826
  C      3.541542   -1.405340   -1.768524
  H      4.437692   -1.235237   -2.153342
  H      3.650797   -1.601376   -0.804312
  C      1.509027   -2.862734   -1.851089
  H      1.080469   -3.636169   -2.296313
  H      1.607118   -3.074368   -0.888958
  C      0.459841    1.126104   -9.886415
  C      1.771457    1.404308  -10.626355
  H      2.377150    0.627969  -10.523739
  H      2.214369    2.192948  -10.223876
  C      1.525817    1.665797  -12.124403
  H      2.395287    1.849137  -12.583126
  C      0.848162    0.441462  -12.762937
  H      0.686584    0.611326  -13.724759
  H      1.439209   -0.348688  -12.682734
  C     -0.483920    0.168038  -12.052721
  H     -0.917372   -0.636530  -12.458659
  C     -0.217526   -0.093734  -10.562519
  H      0.366699   -0.887381  -10.468170
  H     -1.073860   -0.288480  -10.105455
  C     -0.478147    2.333853  -10.079583
  H     -0.072233    3.136622   -9.666193
  H     -1.340543    2.157983   -9.626344
  C     -0.729390    2.598400  -11.579544
  H     -1.326492    3.394537  -11.677689
  C      0.590062    2.873281  -12.281970
  H      1.014756    3.677772  -11.891414
  H      0.426828    3.045777  -13.243060
  C     -1.406522    1.378497  -12.215462
  H     -2.274432    1.204175  -11.772262
  H     -1.575590    1.548083  -13.176074

 Total Charge           Charge          ....    0
 Multiplicity           Mult            ....    1
 Number of Electrons    NEL             ....  408
 Basis Dimension        Dim             .... 1776

ORBITAL ENERGIES
----------------

  NO   OCC          E(Eh)            E(eV)
   0   2.0000     -11.222640      -305.3836
   1   2.0000     -11.222352      -305.3757
   2   2.0000     -11.220281      -305.3194
   3   2.0000     -11.219858      -305.3079
   4   2.0000     -11.219464      -305.2971
   5   2.0000     -11.218903      -305.2819
   6   2.0000     -11.216808      -305.2249
   7   2.0000     -11.216604      -305.2193
   8   2.0000     -11.206411      -304.9419
   9   2.0000     -11.206110      -304.9338
  10   2.0000     -11.205494      -304.9170
  11   2.0000     -11.205153      -304.9077
  12   2.0000     -11.204538      -304.8910
  13   2.0000     -11.204236      -304.8828
  14   2.0000     -11.203645      -304.8667
  15   2.0000     -11.203304      -304.8574
  16   2.0000     -11.197804      -304.7077
  17   2.0000     -11.197520      -304.7000
  18   2.0000     -11.195105      -304.6343
  19   2.0000     -11.195071      -304.6334
  20   2.0000     -11.194668      -304.6224
  21   2.0000     -11.194554      -304.6193
  22   2.0000     -11.194166      -304.6087
  23   2.0000     -11.193477      -304.5900
  24   2.0000     -11.192686      -304.5685
  25   2.0000     -11.192536      -304.5644
  26   2.0000     -11.192413      -304.5610
  27   2.0000     -11.192264      -304.5570
  28   2.0000     -11.191507      -304.5364
  29   2.0000     -11.191354      -304.5322
  30   2.0000     -11.190456      -304.5078
  31   2.0000     -11.189266      -304.4754
  32   2.0000     -11.179042      -304.1972
  33   2.0000     -11.178565      -304.1842
  34   2.0000     -11.177602      -304.1580
  35   2.0000     -11.177423      -304.1531
  36   2.0000     -11.175910      -304.1120
  37   2.0000     -11.175321      -304.0960
  38   2.0000     -11.174806      -304.0819
  39   2.0000     -11.174788      -304.0814
  40   2.0000     -11.174629      -304.0771
  41   2.0000     -11.174393      -304.0707
  42   2.0000     -11.173837      -304.0556
  43   2.0000     -11.173504      -304.0465
  44   2.0000     -11.173364      -304.0427
  45   2.0000     -11.173157      -304.0371
  46   2.0000     -11.172561      -304.0208
  47   2.0000     -11.172420      -304.0170
  48   2.0000     -11.172055      -304.0071
  49   2.0000     -11.171913      -304.0032
  50   2.0000     -11.171306      -303.9867
  51   2.0000     -11.171067      -303.9802
  52   2.0000     -11.171020      -303.9789
  53   2.0000     -11.170834      -303.9738
  54   2.0000     -11.170389      -303.9617
  55   2.0000     -11.170325      -303.9600
  56   2.0000      -1.169794       -31.8317
  57   2.0000      -1.169368       -31.8201
  58   2.0000      -1.167471       -31.7685
  59   2.0000      -1.166889       -31.7527
  60   2.0000      -1.127037       -30.6682
  61   2.0000      -1.126650       -30.6577
  62   2.0000      -1.086334       -29.5606
  63   2.0000      -1.085857       -29.5477
  64   2.0000      -1.067378       -29.0448
  65   2.0000      -1.066986       -29.0342
  66   2.0000      -1.047483       -28.5035
  67   2.0000      -1.046505       -28.4768
  68   2.0000      -1.045363       -28.4458
  69   2.0000      -1.045198       -28.4413
  70   2.0000      -1.043529       -28.3959
  71   2.0000      -1.043100       -28.3842
  72   2.0000      -1.043021       -28.3821
  73   2.0000      -1.042465       -28.3669
  74   2.0000      -1.028332       -27.9823
  75   2.0000      -1.027711       -27.9654
  76   2.0000      -1.020926       -27.7808
  77   2.0000      -1.020517       -27.7697
  78   2.0000      -0.952088       -25.9076
  79   2.0000      -0.951702       -25.8971
  80   2.0000      -0.933423       -25.3997
  81   2.0000      -0.932543       -25.3758
  82   2.0000      -0.931481       -25.3469
  83   2.0000      -0.930982       -25.3333
  84   2.0000      -0.930722       -25.3262
  85   2.0000      -0.930504       -25.3203
  86   2.0000      -0.928158       -25.2565
  87   2.0000      -0.927298       -25.2331
  88   2.0000      -0.893447       -24.3119
  89   2.0000      -0.893084       -24.3020
  90   2.0000      -0.825622       -22.4663
  91   2.0000      -0.824947       -22.4479
  92   2.0000      -0.822163       -22.3722
  93   2.0000      -0.821703       -22.3597
  94   2.0000      -0.815172       -22.1820
  95   2.0000      -0.815064       -22.1790
  96   2.0000      -0.814882       -22.1741
  97   2.0000      -0.814112       -22.1531
  98   2.0000      -0.811796       -22.0901
  99   2.0000      -0.811314       -22.0770
 100   2.0000      -0.800701       -21.7882
 101   2.0000      -0.800096       -21.7717
 102   2.0000      -0.776654       -21.1338
 103   2.0000      -0.776281       -21.1237
 104   2.0000      -0.750116       -20.4117
 105   2.0000      -0.749753       -20.4018
 106   2.0000      -0.724479       -19.7141
 107   2.0000      -0.722649       -19.6643
 108   2.0000      -0.722481       -19.6597
 109   2.0000      -0.720958       -19.6183
 110   2.0000      -0.688568       -18.7369
 111   2.0000      -0.688158       -18.7257
 112   2.0000      -0.683606       -18.6019
 113   2.0000      -0.683192       -18.5906
 114   2.0000      -0.654115       -17.7994
 115   2.0000      -0.653589       -17.7851
 116   2.0000      -0.646567       -17.5940
 117   2.0000      -0.646071       -17.5805
 118   2.0000      -0.639156       -17.3923
 119   2.0000      -0.638774       -17.3819
 120   2.0000      -0.638690       -17.3796
 121   2.0000      -0.637993       -17.3607
 122   2.0000      -0.637258       -17.3407
 123   2.0000      -0.637231       -17.3399
 124   2.0000      -0.636814       -17.3286
 125   2.0000      -0.636604       -17.3229
 126   2.0000      -0.636215       -17.3123
 127   2.0000      -0.635602       -17.2956
 128   2.0000      -0.634563       -17.2673
 129   2.0000      -0.633441       -17.2368
 130   2.0000      -0.623718       -16.9722
 131   2.0000      -0.623370       -16.9628
 132   2.0000      -0.612388       -16.6639
 133   2.0000      -0.611999       -16.6533
 134   2.0000      -0.598143       -16.2763
 135   2.0000      -0.596504       -16.2317
 136   2.0000      -0.582495       -15.8505
 137   2.0000      -0.581478       -15.8228
 138   2.0000      -0.579246       -15.7621
 139   2.0000      -0.577449       -15.7132
 140   2.0000      -0.576396       -15.6845
 141   2.0000      -0.575579       -15.6623
 142   2.0000      -0.573701       -15.6112
 143   2.0000      -0.573033       -15.5930
 144   2.0000      -0.572230       -15.5712
 145   2.0000      -0.572033       -15.5658
 146   2.0000      -0.564978       -15.3738
 147   2.0000      -0.564435       -15.3591
 148   2.0000      -0.558643       -15.2015
 149   2.0000      -0.557333       -15.1658
 150   2.0000      -0.551468       -15.0062
 151   2.0000      -0.551038       -14.9945
 152   2.0000      -0.549175       -14.9438
 153   2.0000      -0.549020       -14.9396
 154   2.0000      -0.548405       -14.9228
 155   2.0000      -0.547990       -14.9116
 156   2.0000      -0.547918       -14.9096
 157   2.0000      -0.547514       -14.8986
 158   2.0000      -0.522939       -14.2299
 159   2.0000      -0.522477       -14.2173
 160   2.0000      -0.517087       -14.0706
 161   2.0000      -0.516180       -14.0460
 162   2.0000      -0.484225       -13.1764
 163   2.0000      -0.482783       -13.1372
 164   2.0000      -0.475476       -12.9384
 165   2.0000      -0.475046       -12.9267
 166   2.0000      -0.473364       -12.8809
 167   2.0000      -0.472869       -12.8674
 168   2.0000      -0.465501       -12.6669
 169   2.0000      -0.464354       -12.6357
 170   2.0000      -0.463888       -12.6230
 171   2.0000      -0.463731       -12.6187
 172   2.0000      -0.461059       -12.5461
 173   2.0000      -0.460353       -12.5268
 174   2.0000      -0.459428       -12.5017
 175   2.0000      -0.459116       -12.4932
 176   2.0000      -0.458454       -12.4752
 177   2.0000      -0.458142       -12.4667
 178   2.0000      -0.457597       -12.4519
 179   2.0000      -0.456272       -12.4158
 180   2.0000      -0.453123       -12.3301
 181   2.0000      -0.452128       -12.3030
 182   2.0000      -0.451952       -12.2982
 183   2.0000      -0.451477       -12.2853
 184   2.0000      -0.417525       -11.3614
 185   2.0000      -0.417058       -11.3487
 186   2.0000      -0.407439       -11.0870
 187   2.0000      -0.407054       -11.0765
 188   2.0000      -0.406789       -11.0693
 189   2.0000      -0.405809       -11.0426
 190   2.0000      -0.402876       -10.9628
 191   2.0000      -0.402122       -10.9423
 192   2.0000      -0.399796       -10.8790
 193   2.0000      -0.399759       -10.8780
 194   2.0000      -0.399574       -10.8730
 195   2.0000      -0.399190       -10.8625
 196   2.0000      -0.392003       -10.6669
 197   2.0000      -0.391603       -10.6561
 198   2.0000      -0.343670        -9.3517
 199   2.0000      -0.343313        -9.3420
 200   2.0000      -0.340080        -9.2540
 201   2.0000      -0.339763        -9.2454
 202   2.0000      -0.301712        -8.2100
 203   2.0000      -0.301364        -8.2005
 204   0.0000       0.124448         3.3864
 205   0.0000       0.124616         3.3910
 206   0.0000       0.125594         3.4176
 207   0.0000       0.132766         3.6127
 208   0.0000       0.133515         3.6331

MULLIKEN ATOMIC CHARGES
-----------------------
   0 C :    0.254489
   1 C :   -0.100647
   2 H :    0.079248
   3 C :   -0.089116
   4 H :    0.078706
   5 C :    0.287517
   6 C :   -0.353777
   7 H :    0.064483
   8 C :   -0.041114
   9 H :    0.065093
  10 C :   -0.061641
  11 H :    0.064948
  12 C :   -0.359379
  13 H :    0.063634
  14 C :    0.332668
  15 C :   -0.483022
  16 H :    0.096324
  17 H :    0.092990
  18 C :    0.388790
  19 H :    0.093324
  20 C :   -0.449948
  21 H :    0.082798
  22 H :    0.100946
  23 C :    0.454088
  24 H :    0.093500
  25 C :   -0.464404
  26 H :    0.085069
  27 H :    0.083005
  28 C :   -0.419365
  29 H :    0.090809
  30 H :    0.082987
  31 C :    0.318148
  32 H :    0.101904
  33 C :   -0.500550
  34 H :    0.077350
  35 H :    0.123854
  36 C :   -0.550808
  37 H :    0.079144
  38 H :    0.125781
  39 C :    0.327491
  40 C :   -0.476862
  41 H :    0.090973
  42 H :    0.097425
  43 C :    0.343550
  44 H :    0.094870
  45 C :   -0.429880
  46 H :    0.091032
  47 H :    0.077482
  48 C :    0.368017
  49 H :    0.091549
  50 C :   -0.440914
  51 H :    0.086372
  52 H :    0.079266
  53 C :   -0.449444
  54 H :    0.084505
  55 H :    0.087787
  56 C :    0.317381
  57 H :    0.095106
  58 C :   -0.428874
  59 H :    0.074019
  60 H :    0.092780
  61 C :   -0.427663
  62 H :    0.076053
  63 H :    0.091550
  64 C :    0.260293
  65 C :   -0.103693
  66 H :    0.079005
  67 C :   -0.089779
  68 H :    0.078818
  69 C :    0.286873
  70 C :   -0.353286
  71 H :    0.064621
  72 C :   -0.041132
  73 H :    0.065167
  74 C :   -0.062234
  75 H :    0.065096
  76 C :   -0.356049
  77 H :    0.063863
  78 C :    0.347347
  79 C :   -0.429033
  80 H :    0.095537
  81 H :    0.092737
  82 C :    0.276296
  83 H :    0.129258
  84 C :   -0.572297
  85 H :    0.078368
  86 H :    0.117428
  87 C :    0.518977
  88 H :    0.094505
  89 C :   -0.481640
  90 H :    0.089189
  91 H :    0.080961
  92 C :   -0.481804
  93 H :    0.092985
  94 H :    0.084942
  95 C :    0.369455
  96 H :    0.098228
  97 C :   -0.480561
  98 H :    0.077083
  99 H :    0.111203
 100 C :   -0.450957
 101 H :    0.081481
 102 H :    0.087002
 103 C :    0.328099
 104 C :   -0.477029
 105 H :    0.090990
 106 H :    0.097450
 107 C :    0.343439
 108 H :    0.094923
 109 C :   -0.429788
 110 H :    0.091059
 111 H :    0.077510
 112 C :    0.368011
 113 H :    0.091549
 114 C :   -0.440962
 115 H :    0.086389
 116 H :    0.079277
 117 C :   -0.449435
 118 H :    0.084538
 119 H :    0.087787
 120 C :    0.317335
 121 H :    0.095153
 122 C :   -0.428936
 123 H :    0.074040
 124 H :    0.092857
 125 C :   -0.427574
 126 H :    0.076087
 127 H :    0.091580
Sum of atomic charges:   -0.0000000

E(0)                                       ...  -2162.560730311
E(0)                                       ...  -2162.560730311
E(CORR)(strong-pairs)                      ...     -0.003335371
E(CORR)(weak-pairs)                        ...     -0.001602919
E(CORR)(corrected)                         ...     -0.004938289
E(TOT)                                     ...  -2162.565668600

LOEWDIN ATOMIC CHARGES
----------------------
   0 C :   -0.062455
   1 C :   -0.083493
   2 H :    0.093150
   3 C :   -0.077209
   4 H :    0.091903
   5 C :   -0.057588
   6 C :   -0.064610
   7 H :    0.091620
   8 C :   -0.091970
   9 H :    0.090472
  10 C :   -0.094914
  11 H :    0.090644
  12 C :   -0.064100
  13 H :    0.092351
  14 C :   -0.155846
  15 C :   -0.125238
  16 H :    0.102053
  17 H :    0.102138
  18 C :   -0.164702
  19 H :    0.103557
  20 C :   -0.153988
  21 H :    0.097283
  22 H :    0.096569
  23 C :   -0.156478
  24 H :    0.102172
  25 C :   -0.123868
  26 H :    0.098605
  27 H :    0.098634
  28 C :   -0.118799
  29 H :    0.099169
  30 H :    0.096805
  31 C :   -0.163102
  32 H :    0.101443
  33 C :   -0.141578
  34 H :    0.094692
  35 H :    0.094933
  36 C :   -0.145266
  37 H :    0.094923
  38 H :    0.095346
  39 C :   -0.165339
  40 C :   -0.123944
  41 H :    0.101692
  42 H :    0.101202
  43 C :   -0.158037
  44 H :    0.101497
  45 C :   -0.145401
  46 H :    0.094859
  47 H :    0.094914
  48 C :   -0.163524
  49 H :    0.102812
  50 C :   -0.124046
  51 H :    0.100106
  52 H :    0.098535
  53 C :   -0.118551
  54 H :    0.097138
  55 H :    0.099718
  56 C :   -0.164308
  57 H :    0.103167
  58 C :   -0.149547
  59 H :    0.095792
  60 H :    0.096223
  61 C :   -0.145805
  62 H :    0.095202
  63 H :    0.095549
  64 C :   -0.062520
  65 C :   -0.083359
  66 H :    0.093155
  67 C :   -0.077206
  68 H :    0.091927
  69 C :   -0.057523
  70 C :   -0.064532
  71 H :    0.091642
  72 C :   -0.092024
  73 H :    0.090477
  74 C :   -0.094842
  75 H :    0.090672
  76 C :   -0.064171
  77 H :    0.092368
  78 C :   -0.155772
  79 C :   -0.124207
  80 H :    0.102210
  81 H :    0.102352
  82 C :   -0.170734
  83 H :    0.101441
  84 C :   -0.157407
  85 H :    0.097590
  86 H :    0.097660
  87 C :   -0.156455
  88 H :    0.102208
  89 C :   -0.123660
  90 H :    0.098691
  91 H :    0.098711
  92 C :   -0.119297
  93 H :    0.099196
  94 H :    0.096787
  95 C :   -0.161437
  96 H :    0.102146
  97 C :   -0.143295
  98 H :    0.094780
  99 H :    0.093477
 100 C :   -0.144664
 101 H :    0.094833
 102 H :    0.094760
 103 C :   -0.165334
 104 C :   -0.123945
 105 H :    0.101692
 106 H :    0.101202
 107 C :   -0.158024
 108 H :    0.101508
 109 C :   -0.145386
 110 H :    0.094873
 111 H :    0.094919
 112 C :   -0.163509
 113 H :    0.102825
 114 C :   -0.124043
 115 H :    0.100108
 116 H :    0.098537
 117 C :   -0.118547
 118 H :    0.097138
 119 H :    0.099721
 120 C :   -0.164295
 121 H :    0.103179
 122 C :   -0.149533
 123 H :    0.095796
 124 H :    0.096236
 125 C :   -0.145790
 126 H :    0.095207
 127 H :    0.095562

  Mayer bond orders larger than 0.100000
B(  0-C ,  1-C ) :   1.9543 B(  0-C , 12-C ) :   1.0248 B(  0-C , 14-C ) :   0.8299
B(  1-C ,  2-H ) :   0.9866 B(  1-C ,  3-C ) :   0.8649 B(  3-C ,  4-H ) :   0.9924
B(  3-C ,  5-C ) :   1.9309 B(  5-C ,  6-C ) :   1.0047 B(  5-C , 39-C ) :   0.8455
B(  6-C ,  7-H ) :   0.9991 B(  6-C ,  8-C ) :   1.9979 B(  8-C ,  9-H ) :   0.9884
B(  8-C , 10-C ) :   0.9155 B( 10-C , 11-H ) :   0.9895 B( 10-C , 12-C ) :   1.9944
B( 12-C , 13-H ) :   1.0008 B( 14-C , 15-C ) :   0.9025 B( 14-C , 25-C ) :   0.9912
B( 14-C , 28-C ) :   0.9358 B( 15-C , 16-H ) :   0.9918 B( 15-C , 17-H ) :   0.9949
B( 15-C , 18-C ) :   0.8940 B( 15-C , 20-C ) :   0.1175 B( 15-C , 25-C ) :   0.1330
B( 15-C , 28-C ) :   0.1038 B( 15-C , 33-C ) :   0.1271 B( 18-C , 19-H ) :   0.9744
B( 18-C , 20-C ) :   0.8729 B( 18-C , 33-C ) :   0.8450 B( 20-C , 21-H ) :   0.9939
B( 20-C , 22-H ) :   0.9901 B( 20-C , 23-C ) :   0.8465 B( 20-C , 25-C ) :   0.1202
B( 20-C , 33-C ) :   0.1287 B( 20-C , 36-C ) :   0.1447 B( 23-C , 24-H ) :   0.9704
B( 23-C , 25-C ) :   0.8819 B( 23-C , 36-C ) :   0.8208 B( 25-C , 26-H ) :   0.9952
B( 25-C , 27-H ) :   0.9919 B( 25-C , 28-C ) :   0.1171 B( 25-C , 36-C ) :   0.1422
B( 28-C , 29-H ) :   0.9931 B( 28-C , 30-H ) :   0.9857 B( 28-C , 31-C ) :   0.9303
B( 28-C , 33-C ) :   0.1117 B( 28-C , 36-C ) :   0.1134 B( 31-C , 32-H ) :   0.9746
B( 31-C , 33-C ) :   0.8544 B( 31-C , 36-C ) :   0.8622 B( 33-C , 34-H ) :   0.9962
B( 33-C , 35-H ) :   0.9823 B( 33-C , 36-C ) :   0.1326 B( 36-C , 37-H ) :   0.9987
B( 36-C , 38-H ) :   0.9697 B( 39-C , 40-C ) :   0.9178 B( 39-C , 50-C ) :   0.9891
B( 39-C , 53-C ) :   0.9067 B( 40-C , 41-H ) :   0.9922 B( 40-C , 42-H ) :   0.9904
B( 40-C , 43-C ) :   0.8965 B( 40-C , 45-C ) :   0.1024 B( 40-C , 50-C ) :   0.1251
B( 40-C , 58-C ) :   0.1024 B( 43-C , 44-H ) :   0.9751 B( 43-C , 45-C ) :   0.8830
B( 43-C , 58-C ) :   0.8802 B( 45-C , 46-H ) :   0.9975 B( 45-C , 47-H ) :   0.9963
B( 45-C , 48-C ) :   0.8745 B( 45-C , 50-C ) :   0.1038 B( 45-C , 58-C ) :   0.1129
B( 45-C , 61-C ) :   0.1132 B( 48-C , 49-H ) :   0.9724 B( 48-C , 50-C ) :   0.8976
B( 48-C , 61-C ) :   0.8725 B( 50-C , 51-H ) :   0.9952 B( 50-C , 52-H ) :   0.9933
B( 50-C , 53-C ) :   0.1274 B( 50-C , 61-C ) :   0.1045 B( 53-C , 54-H ) :   0.9907
B( 53-C , 55-H ) :   0.9925 B( 53-C , 56-C ) :   0.9179 B( 53-C , 58-C ) :   0.1021
B( 56-C , 57-H ) :   0.9732 B( 56-C , 58-C ) :   0.8816 B( 56-C , 61-C ) :   0.8927
B( 58-C , 59-H ) :   0.9968 B( 58-C , 60-H ) :   0.9969 B( 58-C , 61-C ) :   0.1132
B( 61-C , 62-H ) :   0.9961 B( 61-C , 63-H ) :   0.9965 B( 64-C , 65-C ) :   1.9562
B( 64-C , 76-C ) :   1.0219 B( 64-C , 78-C ) :   0.8357 B( 65-C , 66-H ) :   0.9865
B( 65-C , 67-C ) :   0.8653 B( 67-C , 68-H ) :   0.9925 B( 67-C , 69-C ) :   1.9313
B( 69-C , 70-C ) :   1.0045 B( 69-C ,103-C ) :   0.8453 B( 70-C , 71-H ) :   0.9990
B( 70-C , 72-C ) :   1.9981 B( 72-C , 73-H ) :   0.9885 B( 72-C , 74-C ) :   0.9152
B( 74-C , 75-H ) :   0.9893 B( 74-C , 76-C ) :   1.9947 B( 76-C , 77-H ) :   1.0010
B( 78-C , 79-C ) :   0.9202 B( 78-C , 89-C ) :   0.9836 B( 78-C , 92-C ) :   0.9143
B( 79-C , 80-H ) :   0.9936 B( 79-C , 81-H ) :   0.9938 B( 79-C , 82-C ) :   0.9207
B( 79-C , 84-C ) :   0.1096 B( 79-C , 89-C ) :   0.1441 B( 79-C , 92-C ) :   0.1065
B( 79-C , 97-C ) :   0.1045 B( 82-C , 83-H ) :   0.9697 B( 82-C , 84-C ) :   0.8703
B( 82-C , 97-C ) :   0.8629 B( 84-C , 85-H ) :   0.9992 B( 84-C , 86-H ) :   0.9859
B( 84-C , 87-C ) :   0.7979 B( 84-C , 89-C ) :   0.1501 B( 84-C , 97-C ) :   0.1190
B( 84-C ,100-C ) :   0.1545 B( 87-C , 88-H ) :   0.9704 B( 87-C , 89-C ) :   0.8583
B( 87-C ,100-C ) :   0.8185 B( 89-C , 90-H ) :   0.9983 B( 89-C , 91-H ) :   0.9915
B( 89-C , 92-C ) :   0.1146 B( 89-C ,100-C ) :   0.1229 B( 92-C , 93-H ) :   0.9953
B( 92-C , 94-H ) :   0.9868 B( 92-C , 95-C ) :   0.9138 B( 92-C , 97-C ) :   0.1151
B( 92-C ,100-C ) :   0.1050 B( 95-C , 96-H ) :   0.9721 B( 95-C , 97-C ) :   0.8690
B( 95-C ,100-C ) :   0.8737 B( 97-C , 98-H ) :   0.9962 B( 97-C , 99-H ) :   0.9907
B( 97-C ,100-C ) :   0.1240 B(100-C ,101-H ) :   0.9969 B(100-C ,102-H ) :   0.9974
B(103-C ,104-C ) :   0.9178 B(103-C ,114-C ) :   0.9890 B(103-C ,117-C ) :   0.9066
B(104-C ,105-H ) :   0.9922 B(104-C ,106-H ) :   0.9904 B(104-C ,107-C ) :   0.8965
B(104-C ,109-C ) :   0.1024 B(104-C ,114-C ) :   0.1250 B(104-C ,122-C ) :   0.1024
B(107-C ,108-H ) :   0.9751 B(107-C ,109-C ) :   0.8831 B(107-C ,122-C ) :   0.8802
B(109-C ,110-H ) :   0.9975 B(109-C ,111-H ) :   0.9963 B(109-C ,112-C ) :   0.8746
B(109-C ,114-C ) :   0.1038 B(109-C ,122-C ) :   0.1128 B(109-C ,125-C ) :   0.1132
B(112-C ,113-H ) :   0.9723 B(112-C ,114-C ) :   0.8976 B(112-C ,125-C ) :   0.8726
B(114-C ,115-H ) :   0.9952 B(114-C ,116-H ) :   0.9932 B(114-C ,117-C ) :   0.1273
B(114-C ,125-C ) :   0.1045 B(117-C ,118-H ) :   0.9907 B(117-C ,119-H ) :   0.9925
B(117-C ,120-C ) :   0.9179 B(117-C ,122-C ) :   0.1021 B(120-C ,121-H ) :   0.9732
B(120-C ,122-C ) :   0.8816 B(120-C ,125-C ) :   0.8928 B(122-C ,123-H ) :   0.9968
B(122-C ,124-H ) :   0.9969 B(122-C ,125-C ) :   0.1131 B(125-C ,126-H ) :   0.9960
B(125-C ,127-H ) :   0.9965

FINAL SINGLE POINT ENERGY     -2162.565668600193

DIPOLE MOMENT
-------------
                                X             Y             Z
Electronic contribution:     -0.00763       1.98119      -0.02386
Nuclear contribution   :      0.00000      -1.90643       0.00000
                        -----------------------------------------
Total Dipole Moment    :     -0.00763       0.07476      -0.02386
                        -----------------------------------------
Magnitude (a.u.)       :      0.07885
Magnitude (Debye)      :      0.20041

Rotational constants in cm-1:     0.005370     0.000319     0.000311
Rotational constants in MHz :   160.995526     9.553568     9.316790

                             ****ORCA TERMINATED NORMALLY****
TOTAL RUN TIME: 0 days 0 hours 17 minutes 20 seconds 996 msec
