                         Program Version 5.0  -  CURRENT   -
|  1> ! DLPNO-CCSD(T1) aug-cc-pVTZ DEFGRID3 RIJCOSX def2/J aug-cc-pVQZ/C verytightscf TightPNO
|  2>
|  3> %pal nprocs 4 end
|  4> %maxcore 4000
|  5> %scf maxiter 999 end
|  6> %basis auxj "autoaux" auxc "autoaux" autoauxlmax true end
|  7> %mdci TCutPNO 1e-6 printlevel 3 end
|  8>
|  9> *xyz 0 1
| 10> O     2.482542995    -1.248988714     0.449488905
| 11> H     2.616828786    -1.798226083    -0.326968465
| 12> H     2.828107886    -0.362220961     0.204648083
| 13> *
| 14>
| 15>                          ****END OF INPUT****

CARTESIAN COORDINATES (ANGSTROEM)
---------------------------------
  O      2.482543   -1.248989    0.449489
  H      2.616829   -1.798226   -0.326968
  H      2.828108   -0.362221    0.204648

 Total Charge           Charge          ....    0
 Multiplicity           Mult            ....    1
 Number of Electrons    NEL             ....   10
 Basis Dimension        Dim             ....   92

ORBITAL ENERGIES
----------------

  NO   OCC          E(Eh)            E(eV)
   0   2.0000     -20.569236      -559.7174
   1   2.0000      -1.345714       -36.6188
   2   2.0000      -0.711736       -19.3673
   3   2.0000      -0.580438       -15.7945
   4   2.0000      -0.508857       -13.8467
   5   0.0000       0.029307         0.7975
   6   0.0000       0.047573         1.2945
   7   0.0000       0.136007         3.7009
   8   0.0000       0.159079         4.3288
   9   0.0000       0.174461         4.7473

MULLIKEN ATOMIC CHARGES
-----------------------
   0 O :   -0.461824
   1 H :    0.219352
   2 H :    0.242472
Sum of atomic charges:    0.0000000

LOEWDIN ATOMIC CHARGES
----------------------
   0 O :    1.000078
   1 H :   -0.523464
   2 H :   -0.476614

  Mayer bond orders larger than 0.100000
B(  0-O ,  1-H ) :   1.0010 B(  0-O ,  2-H ) :   0.9798

E(0)                                       ...    -76.059068232
E(0)                                       ...    -76.059068232
E(CORR)(strong-pairs)                      ...     -0.273618778
E(CORR)(weak-pairs)                        ...     -0.000492653
E(CORR)(corrected)                         ...     -0.274111431
E(TOT)                                     ...    -76.333179663
E(CCSD(T))                                 ...    -76.341922852
FINAL SINGLE POINT ENERGY       -76.341922852472

DIPOLE MOMENT
-------------
                                X             Y             Z
Electronic contribution:     -0.08228      -0.06112       0.17339
Nuclear contribution   :      0.39941       0.28095      -0.85009
                        -----------------------------------------
Total Dipole Moment    :      0.31713       0.21983      -0.67670
                        -----------------------------------------
Magnitude (a.u.)       :      0.77899
Magnitude (Debye)      :      1.98003

Rotational constants in cm-1:    27.180741    13.990221     9.236233
Rotational constants in MHz : 814858.126026 419416.280498 276895.285639

                             ****ORCA TERMINATED NORMALLY****
TOTAL RUN TIME: 0 days 0 hours 0 minutes 13 seconds 63 msec
