                         Program Version 5.0  -  CURRENT   -
|  1> ! DLPNO-CCSD(T1) aug-cc-pVTZ DEFGRID3 RIJCOSX def2/J aug-cc-pVQZ/C verytightscf TightPNO
|  2>
|  3> %pal nprocs 4 end
|  4> %maxcore 4000
|  5> %scf maxiter 999 end
|  6> %basis auxj "autoaux" auxc "autoaux" autoauxlmax true end
|  7> %mdci TCutPNO 1e-6 printlevel 3 end
|  8>
|  9> *xyz 0 1
| 10> O    -0.845377446     1.902266646    -1.724481185
| 11> H    -1.198971324     1.335278306    -1.003913817
| 12> H    -0.953209570     1.388839038    -2.529056860
| 13> *
| 14>
| 15>                          ****END OF INPUT****

CARTESIAN COORDINATES (ANGSTROEM)
---------------------------------
  O     -0.845377    1.902267   -1.724481
  H     -1.198971    1.335278   -1.003914
  H     -0.953210    1.388839   -2.529057

 Total Charge           Charge          ....    0
 Multiplicity           Mult            ....    1
 Number of Electrons    NEL             ....   10
 Basis Dimension        Dim             ....   92

ORBITAL ENERGIES
----------------

  NO   OCC          E(Eh)            E(eV)
   0   2.0000     -20.569384      -559.7214
   1   2.0000      -1.345827       -36.6218
   2   2.0000      -0.711705       -19.3665
   3   2.0000      -0.580466       -15.7953
   4   2.0000      -0.508994       -13.8504
   5   0.0000       0.029309         0.7975
   6   0.0000       0.047574         1.2945
   7   0.0000       0.136006         3.7009
   8   0.0000       0.159071         4.3285
   9   0.0000       0.174452         4.7471

MULLIKEN ATOMIC CHARGES
-----------------------
   0 O :   -0.461167
   1 H :    0.238064
   2 H :    0.223104
Sum of atomic charges:    0.0000000

LOEWDIN ATOMIC CHARGES
----------------------
   0 O :    1.000124
   1 H :   -0.476724
   2 H :   -0.523399

  Mayer bond orders larger than 0.100000
B(  0-O ,  1-H ) :   0.9861 B(  0-O ,  2-H ) :   0.9958

E(0)                                       ...    -76.059069315
E(0)                                       ...    -76.059069315
E(CORR)(strong-pairs)                      ...     -0.273616928
E(CORR)(weak-pairs)                        ...     -0.000502526
E(CORR)(corrected)                         ...     -0.274119453
E(TOT)                                     ...    -76.333188769
E(CCSD(T))                                 ...    -76.341931080
FINAL SINGLE POINT ENERGY       -76.341931079937

DIPOLE MOMENT
-------------
                                X             Y             Z
Electronic contribution:      0.07960       0.18488       0.01057
Nuclear contribution   :     -0.38407      -0.89930      -0.06993
                        -----------------------------------------
Total Dipole Moment    :     -0.30448      -0.71442      -0.05935
                        -----------------------------------------
Magnitude (a.u.)       :      0.77886
Magnitude (Debye)      :      1.97970

Rotational constants in cm-1:    27.180034    13.990434     9.236244
Rotational constants in MHz : 814836.927234 419422.665353 276895.620582

                             ****ORCA TERMINATED NORMALLY****
TOTAL RUN TIME: 0 days 0 hours 0 minutes 12 seconds 933 msec
