                         Program Version 6.0.x  -  CURRENT   -
|  1> ! DLPNO-CCSD(T1) NOTRAH RIJK aug-cc-pVTZ aug-cc-pVQZ/C aug-cc-pVQZ/JK verytightscf TightPNO
|  2>
|  3> %pal nprocs 4 end
|  4>
|  5> %scf maxiter 999 end
|  6> %basis auxjk "autoaux" auxc "autoaux" autoauxlmax true end
|  7>
|  8> %mdci printlevel 3 end
|  9>
| 10> *xyz 0	1
| 11> O   	 2.220871067	 0.026716792	 0.000620476
| 12> H   	 2.597492682	-0.411663274	 0.766744858
| 13> H   	 2.593135384	-0.449496183	-0.744782026
| 14> *
| 15>
| 16>                          ****END OF INPUT****

CARTESIAN COORDINATES (ANGSTROEM)
---------------------------------
  O      2.220871    0.026717    0.000620
  H      2.597493   -0.411663    0.766745
  H      2.593135   -0.449496   -0.744782

 Total Charge           Charge          ....    0
 Multiplicity           Mult            ....    1
 Number of Electrons    NEL             ....   10
 Basis Dimension        Dim             ....   92

ORBITAL ENERGIES
----------------

  NO   OCC          E(Eh)            E(eV)
   0   2.0000     -20.567866      -559.6801
   1   2.0000      -1.352747       -36.8101
   2   2.0000      -0.715423       -19.4677
   3   2.0000      -0.585575       -15.9343
   4   2.0000      -0.510324       -13.8866
   5   0.0000       0.029378         0.7994
   6   0.0000       0.047710         1.2983
   7   0.0000       0.135866         3.6971
   8   0.0000       0.158723         4.3191
   9   0.0000       0.175254         4.7689

MULLIKEN ATOMIC CHARGES
-----------------------
   0 O :   -0.442174
   1 H :    0.221083
   2 H :    0.221091
Sum of atomic charges:   -0.0000000

LOEWDIN ATOMIC CHARGES
----------------------
   0 O :    1.028773
   1 H :   -0.514396
   2 H :   -0.514377

  Mayer bond orders larger than 0.100000
B(  0-O ,  1-H ) :   0.9981 B(  0-O ,  2-H ) :   0.9981

E(0)                                       ...    -76.060400122
E(0)                                       ...    -76.060400122
E(CORR)(strong-pairs)                      ...     -0.273226345
E(CORR)(weak-pairs)                        ...     -0.000036347
E(CORR)(corrected)                         ...     -0.273262691
E(TOT)                                     ...    -76.333662814
E(CCSD(T))                                 ...    -76.342309546
FINAL SINGLE POINT ENERGY       -76.342309546415

DIPOLE MOMENT
-------------

Method             : SCF
Type of density    : Electron Density
Multiplicity       :   1
Irrep              :   0
Energy             :   -76.0604001221757926 Eh
Basis              : AO
                                X                 Y                 Z
Electronic contribution:     -0.126478080       0.154464104      -0.003498122
Nuclear contribution   :      0.623343171      -0.761271246       0.017248077
                        -----------------------------------------
Total Dipole Moment    :      0.496865092      -0.606807142       0.013749955
                        -----------------------------------------
Magnitude (a.u.)       :      0.784397149
Magnitude (Debye)      :      1.993779105

Rotational constants in cm-1:            26.945200            14.630495             9.482021
Rotational constants in MHz :        807796.770105        438611.199658        284263.835767

                             ****ORCA TERMINATED NORMALLY****
TOTAL RUN TIME: 0 days 0 hours 0 minutes 18 seconds 257 msec
