                         Program Version 6.0.x  -  CURRENT   -
|  1> ! DLPNO-CCSD(T1) NOTRAH RIJK aug-cc-pVTZ aug-cc-pVQZ/C aug-cc-pVQZ/JK verytightscf TightPNO
|  2>
|  3> %pal nprocs 4 end
|  4>
|  5> %scf maxiter 999 end
|  6> %basis auxjk "autoaux" auxc "autoaux" autoauxlmax true end
|  7>
|  8> %mdci printlevel 3 end
|  9>
| 10> *xyz 0 1
| 11> O   	-0.702196054	-0.056060256	 0.009942262
| 12> H   	-1.022193224	 0.846775782	-0.011488714
| 13> H   	 0.257521062	 0.042121496	 0.005218999
| 14> *
| 15>
| 16>                          ****END OF INPUT****

CARTESIAN COORDINATES (ANGSTROEM)
---------------------------------
  O     -0.702196   -0.056060    0.009942
  H     -1.022193    0.846776   -0.011489
  H      0.257521    0.042121    0.005219

 Total Charge           Charge          ....    0
 Multiplicity           Mult            ....    1
 Number of Electrons    NEL             ....   10
 Basis Dimension        Dim             ....   92

ORBITAL ENERGIES
----------------

  NO   OCC          E(Eh)            E(eV)
   0   2.0000     -20.568300      -559.6919
   1   2.0000      -1.352067       -36.7916
   2   2.0000      -0.713909       -19.4265
   3   2.0000      -0.585804       -15.9405
   4   2.0000      -0.510267       -13.8851
   5   0.0000       0.029337         0.7983
   6   0.0000       0.047721         1.2986
   7   0.0000       0.135815         3.6957
   8   0.0000       0.158857         4.3227
   9   0.0000       0.175254         4.7689

MULLIKEN ATOMIC CHARGES
-----------------------
   0 O :   -0.444914
   1 H :    0.219524
   2 H :    0.225390
Sum of atomic charges:   -0.0000000

LOEWDIN ATOMIC CHARGES
----------------------
   0 O :    1.024960
   1 H :   -0.519556
   2 H :   -0.505404

  Mayer bond orders larger than 0.100000
B(  0-O ,  1-H ) :   0.9993 B(  0-O ,  2-H ) :   0.9948

E(0)                                       ...    -76.060217226
E(0)                                       ...    -76.060217226
E(CORR)(strong-pairs)                      ...     -0.273372667
E(CORR)(weak-pairs)                        ...     -0.000034155
E(CORR)(corrected)                         ...     -0.273406821
E(TOT)                                     ...    -76.333624048
E(CCSD(T))                                 ...    -76.342290535
FINAL SINGLE POINT ENERGY       -76.342290535269

DIPOLE MOMENT
-------------

Method             : SCF
Type of density    : Electron Density
Multiplicity       :   1
Irrep              :   0
Energy             :   -76.0602172261196046 Eh
Basis              : AO
                                X                 Y                 Z
Electronic contribution:     -0.109863180      -0.169716347       0.004437666
Nuclear contribution   :      0.532477702       0.833207805      -0.021769759
                        -----------------------------------------
Total Dipole Moment    :      0.422614522       0.663491459      -0.017332093
                        -----------------------------------------
Magnitude (a.u.)       :      0.786844553
Magnitude (Debye)      :      1.999999912

Rotational constants in cm-1:            26.676765            14.634384             9.450186
Rotational constants in MHz :        799749.293315        438727.801417        283309.437561

                             ****ORCA TERMINATED NORMALLY****
TOTAL RUN TIME: 0 days 0 hours 0 minutes 38 seconds 201 msec
